LAMMPS (15 Apr 2020)
OMP_NUM_THREADS environment is not set. Defaulting to 1 thread. (../comm.cpp:94)
  using 1 OpenMP thread(s) per MPI task
# ********************  Lammps script  ********************

# ********************  This manual script started at 2020/5/10 17:00:31  ********************

# ********************  50*8*4 NaCl Crystal Thermal Conductivity  ********************

echo            both

# ********************  Initialization  *******************

units           metal
dimension       3
boundary        p       p       p
atom_style      charge
atom_modify     map     hash

# ********************  Read Data  *******************

read_restart	nvt.restart
  restoring atom style charge from restart
  orthogonal box = (-5.90995 -2.14463 -1.77573) to (283.6 40.1746 16.3257)
  8 by 2 by 1 MPI processor grid
  restoring pair style born/coul/long from restart
  8400 atoms
  read_restart CPU = 0.0097615 secs

# ********************  Potential  *******************

pair_style      born/coul/long	15.0

pair_coeff      1       1	0.263703306	0.316997401	2.34	1.048572898	0.499320477
pair_coeff	1	2	0.210962645	0.316997401	2.755	6.990485644	8.675806132
pair_coeff	2	2	0.161911664	0.316997401	3.17	72.40145986	145.4270695

kspace_style	pppm/stagger	5.0e-5

# ********************  Pre Variable  *******************

variable	T	equal	1000
variable        P       equal	1
variable        Dt      equal	0.001		#timestep

# ********************  Print Parameter  *******************

#thermo          1000
#thermo_style    custom  step    temp    lx      ly      lz      press   vol     pe      ke      etotal

# ********************  Minimize  *******************
#fix             1  all  nve

#dump            1  all  custom  1000  dump.minstrc      id      type    x       y       z
#dump_modify     1  sort id

#min_style       cg
#minimize        1.0e-5  1.0e-8  1000000 1000000

#unfix           1
#undump          1

# ********************  Velocity Initialization  *******************

#velocity	all  create  ${T}  853275  mom  yes  rot  yes  dist  gaussian

# ********************  Temperature per Atom/Group  ********************

reset_timestep	 0
timestep        ${Dt}
timestep        0.001

compute         ALLKe      all     ke/atom
variable        KB         equal   8.625e-5
variable        TEMP       atom    c_ALLKe/1.5/${KB}
variable        TEMP       atom    c_ALLKe/1.5/8.625e-05
fix             TolTpA     all     ave/atom      10   50000   500000   v_TEMP

# ********************  NPT Equilibrium Processing  ********************

#fix             NPT	all	npt     temp     ${T}      ${T}    0.1	iso	${P}      ${P}    0.5

#dump            1       all     custom  500000  dump.npt        id      type    x   y   z   f_TolTpA
#dump_modify     1       sort    id

#thermo_style    custom  step    temp   lx   ly   lz	press  	vol	pe  ke  etotal
#thermo          1000

#restart         250000   NPT*.restart

#run             500000

#undump          1
#unfix           NPT

#write_restart   npt.restart                 #binary file

#write_data      npt.data    nocoeff         #text file

# ********************  NVT Equilibrium Processing  ********************

#fix             NVT     all	nvt     temp     ${T}      ${T}    0.1

#dump            2       all     custom  500000  dump.nvt        id      type    x   y   z   f_TolTpA
#dump_modify     2       sort    id

#run	500000

#undump          2
#unfix           NVT

#write_restart   nvt.restart                 #binary file

#write_data      nvt.data    nocoeff         #text file

# ********************  Coordinate Variable  *******************

variable	xmax	equal	lx
variable	A_40	equal	${xmax}/40
variable	A_40	equal	289.509909529259/40
variable	sor	equal	2*${A_40}
variable	sor	equal	2*7.23774773823147
variable	mid	equal	${xmax}/2
variable	mid	equal	289.509909529259/2
variable	sikL	equal	${mid}-${sor}
variable	sikL	equal	144.75495476463-${sor}
variable	sikL	equal	144.75495476463-14.4754954764629
variable	sikR	equal	${mid}+${sor}
variable	sikR	equal	144.75495476463+${sor}
variable	sikR	equal	144.75495476463+14.4754954764629

# ********************  region and group  *******************

region		fix1	block	INF	-0.5	INF	INF	INF	INF	units box

region		fix2	block	278.5	INF	INF	INF	INF	INF	units box

region		sink	block	139	150.5	INF	INF	INF	INF	units box

region		source1	block	-0.5	5	INF	INF	INF	INF	units box
region		source2	block	272.9	278.5	INF	INF	INF	INF	units box

region		main	block	-0.5	278.5	INF	INF	INF	INF	units box
region		wall	union	2	fix1	fix2

group	hot1	region	source1
161 atoms in group hot1
group	cold	region	sink
336 atoms in group cold
group	hot2	region	source2
168 atoms in group hot2
group	freeze	region	wall
336 atoms in group freeze
group	main_main	region	main
8064 atoms in group main_main

# ********************  Additional Thermal Parameter  ********************

compute	Thot1	hot1	temp/region     source1
compute	Tcold	cold	temp/region     sink

# ********************  2nd equilibrium processing  ********************

fix	nve	all	nve

compute         BLKX_40	all	chunk/atom	bin/1d	x	lower	${A_40}	units	box
compute         BLKX_40	all	chunk/atom	bin/1d	x	lower	7.23774773823147	units	box

fix	T_line_40	all	ave/chunk	200	2500	500000	BLKX_40	v_TEMP	file	temp_40.txt

fix	swap	all	thermal/conductivity	400	x	40

variable	tdiff	equal	c_Thot1-c_Tcold

dump            5       all     custom   500000   all*.une  id   type   x   y   z   f_TolTpA
dump_modify     5       sort    id

thermo_style    custom  step    temp	pe	ke	etotal	c_Thot1	c_Tcold	f_swap	v_tdiff
thermo          4000

restart         500000  2e*.restart

run             8000000
PPPM initialization ...
  using 12-bit tables for long-range coulomb (../kspace.cpp:332)
  G vector (1/distance) = 0.190725
  grid = 100 15 6
  stencil order = 5
  estimated absolute RMS force accuracy = 0.000570746
  estimated relative force accuracy = 3.96361e-05
  using double precision KISS FFT
  3d grid and FFT values/proc = 3192 624
Neighbor list info ...
  update every 1 steps, delay 10 steps, check yes
  max neighbors/atom: 2000, page size: 100000
  master list distance cutoff = 17
  ghost atom cutoff = 17
  binsize = 8.5, bins = 35 5 3
  1 neighbor lists, perpetual/occasional/extra = 1 0 0
  (1) pair born/coul/long, perpetual
      attributes: half, newton on
      pair build: half/bin/atomonly/newton
      stencil: half/bin/3d/newton
      bin: standard
Per MPI rank memory allocation (min/avg/max) = 6.841 | 7.166 | 7.25 Mbytes
Step Temp PotEng KinEng TotEng c_Thot1 c_Tcold f_swap v_tdiff 
       0      1009.01   -32265.647    1095.4377   -31170.209    1002.6391    1017.0548            0   -14.415764 
    4000    996.29229   -32251.806    1081.6307   -31170.175    1035.6583    950.99656    5.5153936     84.66169 
    8000    992.82148   -32248.085    1077.8626   -31170.223    1041.8717    1051.7384    10.975909   -9.8667538 
   12000    1016.6335   -32273.899    1103.7142   -31170.185    1100.4147    1039.2823    16.202547    61.132329 
   16000    1002.4675   -32258.559    1088.3348   -31170.224    947.56015    1060.0544    21.625255   -112.49425 
   20000    1000.6048   -32256.514    1086.3126   -31170.202     942.9111     984.2751    27.162698   -41.363994 
   24000    1002.7519   -32258.836    1088.6435   -31170.193    934.37524    989.38438    32.761278   -55.009139 
   28000    997.23643    -32252.84    1082.6557   -31170.184    895.93343    1116.1383    38.467708   -220.20484 
   32000    1006.5319   -32262.954    1092.7474   -31170.206    895.03137    1078.2072    43.894164   -183.17583 
   36000    1001.2597   -32257.208    1087.0236   -31170.184    874.46676    1044.0686    48.981343   -169.60181 
   40000    1004.6103   -32260.881    1090.6611    -31170.22    944.75852    1132.1749    54.463535   -187.41641 
   44000    1011.3677   -32268.178    1097.9974    -31170.18    850.00227    1099.7797    59.879627   -249.77747 
   48000    1006.4517   -32262.855    1092.6603   -31170.195     960.2565    1118.1533     65.30739   -157.89684 
   52000    1004.6256   -32260.861    1090.6777   -31170.183    887.33331    1067.9987    71.017686    -180.6654 
   56000    1014.4164   -32271.513    1101.3072   -31170.205    963.37208    1104.2328    76.689809    -140.8607 
   60000    1003.9085   -32260.107    1089.8992   -31170.207    981.76551    1055.0324    81.502299   -73.266868 
   64000    995.04748   -32250.527    1080.2792   -31170.248    968.41672    1200.9989    86.968429   -232.58221 
   68000    1004.2574   -32260.496     1090.278   -31170.218    920.19329    1098.0495    92.658597   -177.85616 
   72000    1004.6834   -32260.972    1090.7405   -31170.231    945.08164    1054.9549    97.602269   -109.87328 
   76000     1003.217   -32259.417    1089.1486   -31170.269    918.19276    1030.4932    102.84162   -112.30043 
   80000    993.98502   -32249.365    1079.1258   -31170.239    936.48374    1093.5937     108.2745   -157.10996 
   84000    1007.7244   -32264.268     1094.042   -31170.226    982.25458     1047.943    114.04287   -65.688384 
   88000     1001.557   -32257.574    1087.3463   -31170.227     878.8039    1078.7905    119.81202   -199.98663 
   92000    1002.8951    -32259.02    1088.7991   -31170.221    929.26078    1159.5442    124.84275   -230.28345 
   96000    995.54838   -32251.033     1080.823    -31170.21    878.27667    1089.5917    130.00752   -211.31502 
  100000    1007.0887    -32263.58    1093.3518   -31170.229    832.00318    1130.6972     136.3297   -298.69399 
  104000    993.52393   -32248.851    1078.6252   -31170.226    962.85497    1142.6067    141.27491   -179.75176 
  108000    1006.6112   -32263.034    1092.8334   -31170.201    891.17733    1071.1555    146.93879   -179.97821 
  112000    1000.3392    -32256.27    1086.0242   -31170.245    880.27412    1081.7925    152.84965   -201.51843 
  116000    1008.6479   -32265.249    1095.0446   -31170.205    948.11375    1070.0228    158.12791   -121.90909 
  120000    996.71138   -32252.313    1082.0857   -31170.228    818.13462    1144.8079    163.39386   -326.67331 
  124000     982.6872   -32237.083    1066.8602   -31170.223    970.21266    1097.9219    168.17786   -127.70925 
  128000    992.13191   -32247.324    1077.1139    -31170.21    856.85845    1051.7217    173.32628   -194.86326 
  132000    997.68422   -32253.337    1083.1418   -31170.195    916.67703    1162.1359     178.6478   -245.45889 
  136000    1002.6876   -32258.785    1088.5738   -31170.211     942.1403    1104.6493    184.26875   -162.50905 
  140000    996.18784   -32251.767    1081.5173    -31170.25    956.55142    1135.3934    190.13275   -178.84193 
  144000    1002.0538   -32258.148    1087.8856   -31170.262    928.09558    1104.5962    195.65148   -176.50065 
  148000    1003.5414   -32259.743    1089.5007   -31170.242    903.88916     1085.161    200.95994   -181.27182 
  152000    1007.1834   -32263.686    1093.4546   -31170.232    972.47975    1125.5269    206.07354   -153.04711 
  156000    997.11469   -32252.774    1082.5235   -31170.251    956.13739    1122.0093    211.78383   -165.87188 
  160000    990.98083   -32246.072    1075.8642   -31170.208    964.48542    1151.2453    217.41023   -186.75991 
  164000    993.97368   -32249.351    1079.1134   -31170.237    882.65907    1105.1936    223.07238   -222.53458 
  168000    1003.9209   -32260.149    1089.9127   -31170.236    860.25043     1096.219    228.14571   -235.96857 
  172000    999.69097   -32255.551    1085.3205   -31170.231    946.43835    1127.5147    233.63563    -181.0764 
  176000    1000.6495    -32256.61    1086.3611   -31170.249    920.90621    1038.4542    238.71595   -117.54794 
  180000    996.31585   -32251.921    1081.6562   -31170.265    985.18648     1024.112    244.18454   -38.925514 
  184000    990.45414   -32245.533    1075.2924   -31170.241    963.83109    1149.8152    249.62507   -185.98413 
  188000    992.18917    -32247.44    1077.1761   -31170.264    935.84485    1089.9613    255.23859   -154.11647 
  192000    1005.9928   -32262.419     1092.162   -31170.257    949.27294    1200.1838    260.51981   -250.91086 
  196000    1001.2393   -32257.272    1087.0014   -31170.271     882.2194    1194.9768    266.46791   -312.75742 
  200000    1002.4555    -32258.58    1088.3218   -31170.258    897.36656    1170.2352     271.7725   -272.86862 
  204000    1006.3844   -32262.842    1092.5873   -31170.254    1037.4915    1101.9685    277.16776   -64.477017 
  208000    1008.0345   -32264.636    1094.3787   -31170.258    854.01378    1082.2199     282.4085   -228.20608 
  212000    994.95558   -32250.435    1080.1795   -31170.255    962.67372    1056.3638    288.29398   -93.690048 
  216000    998.52777    -32254.31    1084.0576   -31170.253    874.89725    1053.1021    293.83624   -178.20485 
  220000    992.98747   -32248.331    1078.0428   -31170.288     984.5186    1165.5093    299.09446   -180.99074 
  224000    993.87127   -32249.246    1079.0023   -31170.244    904.09215    1149.0708     304.3735   -244.97869 
  228000    1015.9148   -32273.209     1102.934   -31170.275    1028.6559    1084.0465     309.4134   -55.390628 
  232000    1003.1368   -32259.341    1089.0614   -31170.279    1038.6084    1099.3228    314.18686    -60.71439 
  236000      999.912   -32255.842    1085.5604   -31170.281    909.23223    1115.2153    319.89902   -205.98312 
  240000    997.57327   -32253.299    1083.0214   -31170.278    905.93052    1172.2046    325.70155   -266.27411 
  244000    997.86939   -32253.634    1083.3428   -31170.292      976.863    1098.4684    331.23725   -121.60539 
  248000     1001.885   -32257.984    1087.7024   -31170.281    819.77393    1107.6402    336.55991   -287.86628 
  252000     997.9614   -32253.741    1083.4427   -31170.298    891.91178    1083.7705    341.06212   -191.85875 
  256000    999.49236   -32255.376    1085.1048   -31170.271     838.0445     1077.684    346.81236   -239.63951 
  260000    997.89369   -32253.666    1083.3692   -31170.297    875.41784    1086.0199    351.86556   -210.60203 
  264000    988.27217   -32243.213    1072.9236   -31170.289    989.88636    1057.9903    357.21077   -68.103918 
  268000    1000.3244   -32256.281    1086.0082   -31170.273    924.85926     1109.072    362.44437   -184.21269 
  272000    999.96992   -32255.917    1085.6233   -31170.293    940.73779    1004.5042     367.3964   -63.766408 
  276000    992.74454   -32248.071     1077.779   -31170.292    1002.9043    1072.1909    372.53067   -69.286617 
  280000    995.84562   -32251.441    1081.1457   -31170.296    918.69873    1021.9162    377.71082   -103.21743 
  284000    993.49003    -32248.88    1078.5884   -31170.292    874.60312    1094.9028    383.10573    -220.2997 
  288000    1005.4972   -32261.885    1091.6241   -31170.261     908.0354    1114.2725    388.03516   -206.23709 
  292000    1007.3007    -32263.88     1093.582   -31170.298    927.20007    1086.6337    393.98778   -159.43359 
  296000    1004.2711   -32260.595    1090.2929   -31170.302    1034.9304    1142.8009    399.42764   -107.87053 
  300000    1003.0997   -32259.315    1089.0211   -31170.294    873.51463    1086.7792    404.91283   -213.26454 
  304000    1003.6924   -32259.958    1089.6647   -31170.293    913.10172    1053.3447    410.08948   -140.24298 
  308000    1006.2059   -32262.684    1092.3934    -31170.29    932.33407     1043.531    415.15052   -111.19691 
  312000    1007.5205   -32264.116    1093.8206   -31170.295    909.01662    1137.8732    421.15129   -228.85657 
  316000    997.22639   -32252.945    1082.6448     -31170.3    925.39615    1124.1228    426.46013    -198.7266 
  320000    1000.1892   -32256.125    1085.8613   -31170.263    832.44654    1010.3453    431.81627   -177.89873 
  324000    1001.0367   -32257.083    1086.7815   -31170.302    949.28437    1112.3032    436.49356   -163.01879 
  328000    1008.9092    -32265.62    1095.3283   -31170.292    899.61317      1111.33    442.09353   -211.71685 
  332000    1013.4663   -32270.584    1100.2757   -31170.308    934.06963    1130.9439    447.52928   -196.87426 
  336000    993.39387   -32248.748     1078.484   -31170.264    817.10014    1195.4766    452.42345   -378.37641 
  340000    1006.7968   -32263.342    1093.0349   -31170.307    962.87269    1085.9566    457.80274   -123.08391 
  344000    1003.8026   -32260.062    1089.7843   -31170.278    929.08955    1114.8768    463.50544    -185.7873 
  348000    1000.0308   -32256.026    1085.6894   -31170.336     897.8864    1176.5455    468.74392   -278.65911 
  352000     999.4259   -32255.362    1085.0327    -31170.33     836.4676    1187.9725    475.52585   -351.50495 
  356000    988.99913   -32244.024    1073.7128   -31170.312    988.88412    1110.8663    480.52931   -121.98218 
  360000    992.50622   -32247.836    1077.5203   -31170.316    869.61101    1155.1714    486.63213   -285.56039 
  364000      1001.74   -32257.878     1087.545   -31170.333    831.41057     1071.895    492.31796   -240.48447 
  368000    1002.0954   -32258.259    1087.9309   -31170.329     939.4541     1038.481    497.27155   -99.026857 
  372000    1017.5625   -32275.041    1104.7227   -31170.318    1016.2616    1157.0177    502.29236   -140.75607 
  376000    993.71695   -32249.175    1078.8347   -31170.341    971.36427    1004.6489    507.43427    -33.28467 
  380000    998.47833   -32254.318    1084.0039   -31170.314    827.06616    1062.8452    512.67458   -235.77908 
  384000     998.5636   -32254.425    1084.0965   -31170.328    913.66913    1153.5096    518.03758   -239.84045 
  388000    997.10842   -32252.837    1082.5167    -31170.32    902.68179    1086.3115    522.82202   -183.62972 
  392000    1007.9374   -32264.594    1094.2732   -31170.321    788.61947     1092.664    527.79856   -304.04456 
  396000    1000.1111   -32256.092    1085.7765   -31170.316    931.74091    1079.3491    532.78902   -147.60821 
  400000    995.85424   -32251.477    1081.1551   -31170.322    860.19738     1079.426    537.83131   -219.22866 
  404000    992.71817   -32248.094    1077.7504   -31170.344    945.45442    1066.4891    543.91692   -121.03467 
  408000     1008.303   -32264.976    1094.6701   -31170.306    973.11687    1074.1825    549.64406   -101.06558 
  412000    986.59893   -32241.452     1071.107   -31170.345    946.81578    1025.1363    554.85942   -78.320556 
  416000    994.27026   -32249.762    1079.4354   -31170.327    919.85716    1133.4577    560.79064   -213.60056 
  420000    999.27598     -32255.2    1084.8699    -31170.33     930.4441    1062.1897    566.25324   -131.74562 
  424000    995.46497   -32251.083    1080.7325    -31170.35    839.16826    1244.6806    571.20461   -405.51234 
  428000    1012.9468    -32270.02    1099.7118   -31170.309    888.43301    1162.0929    576.26153    -273.6599 
  432000    998.00476   -32253.808    1083.4898   -31170.319    919.87865    1120.5426    581.10176   -200.66393 
  436000    997.87875   -32253.671     1083.353   -31170.318    920.97402    1168.1872    587.13525   -247.21318 
  440000    993.45551   -32248.871    1078.5509    -31170.32    1015.9156    1156.1061     592.2833   -140.19049 
  444000    1005.0646   -32261.449    1091.1544   -31170.295    955.86903    1177.8808    597.20929   -222.01179 
  448000    1004.5701   -32260.902    1090.6175   -31170.285    894.80132    1137.5664    602.49614    -242.7651 
  452000    1000.5636   -32256.595    1086.2679   -31170.327    937.01445    1069.2018    607.99933   -132.18737 
  456000    1006.3089   -32262.823    1092.5052   -31170.318    874.45732    1061.8897    613.07817   -187.43236 
  460000     998.6585   -32254.518    1084.1995   -31170.318    965.97844    1079.4606    618.30167   -113.48213 
  464000    1000.5183   -32256.534    1086.2186   -31170.315    874.28342    1072.7731    623.25504   -198.48967 
  468000    1014.2416   -32271.409    1101.1175   -31170.292     926.0281    1111.6505    628.20836   -185.62241 
  472000    1002.8605   -32259.028    1088.7615   -31170.267    928.26252    1052.0921    633.16326   -123.82958 
  476000    996.66519   -32252.346    1082.0355    -31170.31    813.93291    1061.5513    638.34337   -247.61839 
  480000    1002.7346   -32258.914    1088.6248   -31170.289    875.23226    1095.6353    643.42436   -220.40307 
  484000    997.79931    -32253.53    1083.2668   -31170.263    943.70171    1060.1919    648.61212   -116.49015 
  488000    1000.5734   -32256.582    1086.2785   -31170.304    877.29933    1173.7396    653.35093   -296.44022 
  492000    998.74252   -32254.576    1084.2908   -31170.285    945.69018    1134.0645    658.25684   -188.37433 
  496000    990.10351   -32245.179    1074.9118   -31170.267    858.25879    1155.9261    663.36716   -297.66731 
  500000    998.88764   -32254.764    1084.4483   -31170.316    875.74443    1062.1971    668.49386    -186.4527 
  504000    1012.5901   -32269.595    1099.3244   -31170.271    801.08779    1142.9745    673.37501   -341.88672 
  508000     994.1886   -32249.659    1079.3468   -31170.312    905.61811    1020.2831    678.60163   -114.66502 
  512000    1003.9718   -32260.256     1089.968   -31170.288    921.04073    1145.2445     683.5359   -224.20376 
  516000    1002.0224   -32258.157    1087.8516   -31170.306     969.8779    1070.2367    689.32503   -100.35881 
  520000    995.49001   -32251.046    1080.7597   -31170.286    933.58936     1169.527    694.55334    -235.9376 
  524000    1002.7397   -32258.915    1088.6303   -31170.285    1030.5843    1160.2619    700.35899   -129.67752 
  528000    1003.0103   -32259.211    1088.9241   -31170.287    964.86088    1096.5697    705.50857   -131.70881 
  532000    996.86895   -32252.549    1082.2567   -31170.292    870.47801    1046.9017    711.03292   -176.42374 
  536000    1007.4207   -32263.989    1093.7123   -31170.277    977.57657    1172.4076     716.8659   -194.83105 
  540000    997.06887   -32252.764    1082.4738    -31170.29     918.4202    1070.8698    721.81855   -152.44958 
  544000    1000.4195   -32256.406    1086.1114   -31170.295    885.42404    1091.2887    727.06763   -205.86468 
  548000    999.67782   -32255.611    1085.3062   -31170.305    862.93225    1035.8193    733.06149   -172.88704 
  552000     1004.707   -32261.059    1090.7661   -31170.293    974.99346    1060.6942    738.53024   -85.700759 
  556000    1005.7944   -32262.213    1091.9467   -31170.267    939.78004    1079.2194    744.35481   -139.43933 
  560000    1002.2927   -32258.421     1088.145   -31170.276    868.12021    1105.6059    749.60001   -237.48571 
  564000    1003.2109   -32259.436    1089.1418   -31170.294    907.09825    1146.8243    754.64472   -239.72605 
  568000     1002.796   -32258.963    1088.6915   -31170.272    867.25786     1123.432    759.80661   -256.17409 
  572000    1012.5866   -32269.601    1099.3207   -31170.281    897.88292    1155.1815    765.39237   -257.29854 
  576000    1006.4572   -32262.944    1092.6662   -31170.277     796.2637    1073.1636    770.54338   -276.89991 
  580000    1006.3834   -32262.866    1092.5861    -31170.28    954.74383    1142.4422    775.56237   -187.69839 
  584000      1000.07   -32256.006     1085.732   -31170.274    856.25777     1131.225    781.38274    -274.9672 
  588000    998.49606   -32254.314    1084.0232   -31170.291    952.80727    1118.0463    786.44997     -165.239 
  592000    992.07496   -32247.324    1077.0521   -31170.272    931.41783    1136.8306    791.90114   -205.41275 
  596000    985.07286   -32239.718    1069.4502   -31170.267    854.49638    1094.3488    796.93872   -239.85245 
  600000    996.64154   -32252.274    1082.0098   -31170.264    926.80361    1072.4886    802.47969   -145.68499 
  604000    1009.7555   -32266.539    1096.2471   -31170.292    869.47862    1124.4731    807.74229   -254.99452 
  608000    1006.0742   -32262.534    1092.2505   -31170.283    889.63465    1070.3072    813.09757   -180.67257 
  612000    990.09656   -32245.216    1074.9042   -31170.311     858.7138    1050.0642    818.33056   -191.35035 
  616000    1006.8705    -32263.39     1093.115   -31170.275    961.77425    1053.6042    823.23356   -91.829971 
  620000     1011.962   -32268.939    1098.6426   -31170.296    1010.8145    1213.6236    828.26816   -202.80912 
  624000    988.28682   -32243.224    1072.9395   -31170.284    853.26204     1099.911    832.91884   -246.64897 
  628000    1007.4008   -32263.982    1093.6907   -31170.291    937.88669    1174.5538     837.9413   -236.66709 
  632000    996.76685   -32252.435    1082.1459   -31170.289    856.67285    1135.1373    843.32792   -278.46448 
  636000    1001.7637   -32257.848    1087.5708   -31170.277    877.31264    1194.0909    848.53885   -316.77824 
  640000    1003.4139    -32259.62    1089.3623   -31170.258    904.22244     1126.276    854.06309   -222.05354 
  644000    1001.7228   -32257.824    1087.5263   -31170.298    915.15107    1180.9627    859.40814   -265.81165 
  648000    991.56596   -32246.786    1076.4995   -31170.287    984.53744    1190.4091    864.67807   -205.87167 
  652000     1002.619   -32258.748    1088.4993   -31170.249    1011.6218    1096.4845    870.80431   -84.862733 
  656000    1010.1458   -32266.933    1096.6708   -31170.262    898.29654     1086.784      876.111   -188.48745 
  660000    995.33118   -32250.874    1080.5872   -31170.287    854.16345    1135.7148    881.38582    -281.5513 
  664000    997.57059   -32253.288    1083.0185    -31170.27    946.61833    1156.6386    886.42551   -210.02027 
  668000    1001.0605   -32257.091    1086.8073   -31170.283    840.20749    1206.6102    891.75582   -366.40271 
  672000    1001.7149   -32257.797    1087.5177    -31170.28    849.17944    1188.8956    896.72981   -339.71611 
  676000    996.07474   -32251.662    1081.3945   -31170.268    888.26732    1119.1657    902.55717    -230.8984 
  680000    995.88495   -32251.441    1081.1884   -31170.252    985.68695    1054.6579    907.50131   -68.970964 
  684000    1015.2163   -32272.418    1102.1756   -31170.242    835.87314    1103.8006    912.16986   -267.92743 
  688000    995.76525   -32251.329    1081.0585    -31170.27     932.1238    1144.2382    917.77824    -212.1144 
  692000    1006.9979   -32263.507    1093.2533   -31170.254    809.00324    1043.2783    922.85334   -234.27506 
  696000     1009.711   -32266.442    1096.1988   -31170.243    893.10028    1178.3781    927.66059   -285.27778 
  700000    992.84909   -32248.128    1077.8925   -31170.235    905.98802    1055.5673     933.2561   -149.57926 
  704000    996.80721   -32252.422    1082.1897   -31170.233    946.38912    1123.1903    938.24951   -176.80119 
  708000     1000.216   -32256.128    1085.8904   -31170.238     801.0496    1252.7572    943.58967   -451.70762 
  712000    999.47504   -32255.336     1085.086    -31170.25    941.88983    1140.4799    949.16553   -198.59003 
  716000    994.86383   -32250.312    1080.0798   -31170.232    882.67797    1031.1097    954.16359   -148.43173 
  720000    995.07337   -32250.549    1080.3073   -31170.242    978.40509     1083.388    959.65425   -104.98292 
  724000    998.15777   -32253.902    1083.6559   -31170.246    901.29898     1096.782    964.64974   -195.48306 
  728000    997.37099    -32253.02    1082.8018   -31170.218    915.80111    1135.5743    969.72514   -219.77321 
  732000    1006.6155   -32263.092    1092.8382   -31170.254    924.32054    1204.9652    975.64815   -280.64467 
  736000    999.90723   -32255.802    1085.5552   -31170.247    944.53301    1128.0958    980.79003   -183.56283 
  740000    1003.7047    -32259.94     1089.678   -31170.262    931.53114    1147.3621    986.02987   -215.83092 
  744000    1002.3604   -32258.472    1088.2186   -31170.253    865.87894    1080.6744    991.46339   -214.79545 
  748000    1003.3873    -32259.59    1089.3334   -31170.256    960.68609    1176.4978    997.04605   -215.81167 
  752000     996.9995    -32252.64    1082.3984   -31170.242    1008.6946    1157.0223    1002.1033   -148.32765 
  756000    1004.5447   -32260.833      1090.59   -31170.243    821.51882    1149.9261    1007.6603    -328.4073 
  760000    1001.8445   -32257.926    1087.6584   -31170.267    880.98335    1123.5579    1012.9294   -242.57453 
  764000    999.50999   -32255.387     1085.124   -31170.263    870.51474    1030.1993    1017.7626   -159.68452 
  768000    1007.8481   -32264.444    1094.1763   -31170.268    932.88136    1079.6747    1022.8478   -146.79332 
  772000    995.13788   -32250.632    1080.3774   -31170.255    973.28024    1144.3209    1028.6768   -171.04071 
  776000    1004.1395   -32260.385    1090.1501   -31170.235    907.48405    1127.6274    1033.6893   -220.14331 
  780000    995.86599   -32251.402    1081.1678   -31170.234    942.72936    1033.4267    1039.0539   -90.697334 
  784000    997.92118   -32253.652    1083.3991   -31170.253    944.95103    1140.8069    1044.2024   -195.85591 
  788000    1002.8754    -32259.03    1088.7776   -31170.253    909.78613    1171.2492    1049.4594   -261.46308 
  792000    1004.6424   -32260.934     1090.696   -31170.238     925.3487    1141.2878    1055.4677   -215.93909 
  796000    1000.9404   -32256.914    1086.6769   -31170.237    950.91715     1032.379    1061.0578   -81.461875 
  800000    1001.6471   -32257.684    1087.4441    -31170.24    897.03503    1102.0256    1066.9153   -204.99053 
  804000    1009.7397   -32266.494    1096.2299   -31170.264    917.17623    1069.5581    1072.2608   -152.38191 
  808000    994.69233   -32250.132    1079.8937   -31170.238    893.39991    1101.3463     1077.696    -207.9464 
  812000    1002.9659   -32259.123    1088.8759   -31170.247    981.22015     1122.798    1082.6533   -141.57782 
  816000       1007.1   -32263.608    1093.3641   -31170.244    890.95737    1079.0177     1087.966   -188.06037 
  820000    1004.5465    -32260.84    1090.5919   -31170.248    864.60687    1153.2776    1093.5875   -288.67073 
  824000    1003.1057   -32259.301    1089.0277   -31170.274    885.73244    1089.9862    1098.8432   -204.25376 
  828000    990.69328   -32245.813    1075.5521   -31170.261    977.52232    1024.9358    1104.1555   -47.413485 
  832000    1001.6933    -32257.74    1087.4943   -31170.246    882.48139     1050.438    1108.9417   -167.95662 
  836000     996.9225   -32252.536    1082.3149   -31170.221    929.46984    1089.5917    1114.3342   -160.12189 
  840000    1008.2543   -32264.843    1094.6173   -31170.226    886.01795    1253.7667    1119.8259   -367.74871 
  844000    1008.3167   -32264.899     1094.685   -31170.214    1070.3476    1162.6749    1125.5342   -92.327306 
  848000    1011.8297   -32268.721    1098.4989   -31170.222    916.48728    1183.4506     1131.225   -266.96328 
  852000    987.66223   -32242.501    1072.2614    -31170.24    890.50471    1057.2588    1136.6865    -166.7541 
  856000    1005.1582   -32261.483     1091.256   -31170.227    907.74722    1158.3761    1142.0987   -250.62885 
  860000    999.21542   -32255.036    1084.8042   -31170.232    893.66957    1091.6774    1147.4132   -198.00779 
  864000    1011.0128    -32267.83    1097.6121   -31170.218    998.44623    1117.2135    1153.2807   -118.76724 
  868000     995.0792   -32250.529    1080.3137   -31170.216    873.66978    1160.5569    1159.3035   -286.88713 
  872000     997.9032   -32253.582    1083.3796   -31170.203    888.44202    1095.8493    1164.6581   -207.40724 
  876000    1006.3163    -32262.74    1092.5132   -31170.227    923.64675    1096.8962    1169.3408   -173.24945 
  880000    1006.6434   -32263.074    1092.8684   -31170.206     1060.215    1105.8108    1174.2805   -45.595736 
  884000    1002.9142   -32259.041    1088.8197   -31170.221    864.99968     1182.974    1179.9887   -317.97433 
  888000    997.62717   -32253.304    1083.0799   -31170.224    956.70308    1079.6593    1185.4629   -122.95627 
  892000     995.7381   -32251.237     1081.029   -31170.208    862.23911     1157.247    1191.1897   -295.00785 
  896000    1001.7642   -32257.791    1087.5712    -31170.22    896.47989    1129.6005    1196.8168   -233.12062 
  900000    1005.6127   -32261.953    1091.7495   -31170.204     833.3819    1083.8467    1202.1101   -250.46478 
  904000    1000.2467   -32256.133    1085.9237   -31170.209    932.34351    1109.3172    1206.8245   -176.97372 
  908000    1008.7093   -32265.304    1095.1113   -31170.193    921.41705    1126.7367    1211.8161   -205.31965 
  912000    996.40886   -32251.963    1081.7572   -31170.206    950.20323    1044.0268     1216.849   -93.823539 
  916000    998.78816   -32254.559    1084.3403   -31170.219    971.14915    1096.8344    1222.6693   -125.68524 
  920000    1005.6988    -32262.05    1091.8429   -31170.207     865.3972    1077.9652    1227.6865   -212.56804 
  924000    990.22631   -32245.252    1075.0451   -31170.207    991.01386    1177.1207    1233.0018   -186.10685 
  928000    1009.2113   -32265.879    1095.6562   -31170.223    934.80476    1115.4338     1238.385   -180.62905 
  932000    995.72764   -32251.229    1081.0176   -31170.212     883.5552    1126.5582    1244.6716   -243.00303 
  936000    989.85931   -32244.907    1074.6467    -31170.26    865.67571    1091.4944    1250.2486   -225.81869 
  940000    988.48452   -32243.367    1073.1541   -31170.213    835.69288    1129.4511    1255.7688   -293.75823 
  944000    987.63717    -32242.45    1072.2342   -31170.216    847.93715    1097.4667    1261.0863   -249.52955 
  948000     995.2051   -32250.666    1080.4503   -31170.216    974.03116    1085.5818    1266.3844   -111.55064 
  952000    1012.8277   -32269.785    1099.5824   -31170.203    856.46481     1088.802    1271.6066   -232.33719 
  956000    996.27007   -32251.813    1081.6065   -31170.207    941.74429    1153.4561    1276.7042   -211.71181 
  960000    1002.4411   -32258.517    1088.3062   -31170.211    927.79772    1095.2833     1282.184   -167.48554 
  964000    997.23734   -32252.863    1082.6567   -31170.206    949.49097    1123.2907    1287.0755   -173.79972 
  968000    1000.7645   -32256.696    1086.4859    -31170.21    833.90257    1050.2493    1292.8138   -216.34674 
  972000    1001.6571   -32257.631     1087.455   -31170.176    977.83067    1151.6907    1298.0774   -173.86003 
  976000    1014.5086   -32271.608    1101.4073   -31170.201    980.13835    1123.4673    1303.0818   -143.32899 
  980000     1003.542   -32259.698    1089.5013   -31170.197    929.96129    1058.0312    1309.1654    -128.0699 
  984000     990.8578   -32245.947    1075.7307   -31170.216    944.65439    1133.8122    1314.5324   -189.15777 
  988000     999.7409   -32255.571    1085.3747   -31170.197    900.11636    1112.2876    1319.6495    -212.1712 
  992000    1001.2459   -32257.213    1087.0085   -31170.205    939.40317    1084.3568    1324.9598   -144.95364 
  996000    992.59404    -32247.84    1077.6156   -31170.224    929.86815    1079.1677    1330.6861   -149.29951 
 1000000    1004.7809   -32261.034    1090.8463   -31170.188    995.13782    1192.4319    1335.7976   -197.29405 
 1004000    998.15771   -32253.849    1083.6559   -31170.193    1030.5061    1182.0641    1340.8748   -151.55797 
 1008000    1003.8368   -32260.022    1089.8214   -31170.201    862.81797    1167.7328    1345.8547   -304.91481 
 1012000    992.63107   -32247.824    1077.6558   -31170.169    942.34728    1105.0514    1351.2781   -162.70416 
 1016000    998.78881   -32254.563     1084.341   -31170.222    901.59116    1135.7372    1356.0047   -234.14605 
 1020000    1004.4466   -32260.673    1090.4834    -31170.19    890.41091    1077.3275    1361.3693   -186.91659 
 1024000    1000.7896   -32256.695    1086.5132   -31170.182    878.47487    1164.2602    1367.0616   -285.78531 
 1028000    991.06896   -32246.183    1075.9599   -31170.223    886.79736    1081.9716    1372.7981   -195.17421 
 1032000    982.59085   -32236.974    1066.7556   -31170.219    894.59196    1046.9042    1378.1741    -152.3122 
 1036000    1006.9303   -32263.391    1093.1798   -31170.212    1034.8035    1122.2839    1383.3451   -87.480386 
 1040000     1004.207   -32260.415    1090.2233   -31170.191    988.01036    1145.9984    1388.7886   -157.98809 
 1044000    1006.7005   -32263.115    1092.9304   -31170.184    1046.8584    1107.8597     1393.824   -61.001234 
 1048000    999.08219   -32254.857    1084.6595   -31170.198    898.43811     1071.956    1398.9156   -173.51792 
 1052000     1004.992    -32261.28    1091.0756   -31170.204    826.53664    1091.0552    1404.2548   -264.51861 
 1056000    992.67995   -32247.934    1077.7089   -31170.225    956.51512    1164.3415    1409.9529   -207.82642 
 1060000    995.39596   -32250.858    1080.6576     -31170.2    917.72351    1160.9647    1415.4095   -243.24123 
 1064000    997.48609   -32253.159    1082.9267   -31170.232    878.35336    1146.7526    1420.1585   -268.39928 
 1068000    992.34555   -32247.582    1077.3459   -31170.236    870.39111    1039.6268    1425.9354   -169.23567 
 1072000    1004.0798   -32260.303    1090.0852   -31170.218      995.853    992.39909    1431.7579    3.4539121 
 1076000    1005.1896   -32261.486      1091.29   -31170.196    854.45359    1094.1734    1437.3716   -239.71984 
 1080000    1002.0271   -32258.053    1087.8567   -31170.196    998.21564    1080.4739    1443.4472   -82.258259 
 1084000    996.96247   -32252.555    1082.3582   -31170.196    819.01561    1031.3601    1448.4893   -212.34454 
 1088000    998.51204   -32254.236    1084.0405   -31170.196    917.12424    1041.7252    1453.8687     -124.601 
 1092000     997.4761   -32253.121    1082.9159   -31170.205    923.42346    1107.8796    1458.9452   -184.45615 
 1096000    992.05991   -32247.271    1077.0358   -31170.235    1001.9085    1119.8074    1464.2949   -117.89889 
 1100000    1003.1659   -32259.324     1089.093   -31170.231    907.75551    1134.8663    1469.5861    -227.1108 
 1104000    1003.3844   -32259.569    1089.3303   -31170.238    1020.7624    1057.1101    1474.4874   -36.347697 
 1108000    990.58375   -32245.669    1075.4331   -31170.236    935.50449    1123.6299    1479.6533   -188.12536 
 1112000    999.31978   -32255.141    1084.9175   -31170.223    880.75277    1106.9839    1485.1682   -226.23117 
 1116000    1001.1932   -32257.171    1086.9514    -31170.22    924.29203    1150.8137    1490.4365   -226.52165 
 1120000    1005.6455   -32261.995     1091.785    -31170.21    893.01576    1045.8722    1496.1207   -152.85648 
 1124000    1005.0694   -32261.386    1091.1595   -31170.227     984.5657    1188.0124    1501.7812   -203.44667 
 1128000     1001.846    -32257.87    1087.6601    -31170.21    956.33595    1103.9582    1506.6224   -147.62228 
 1132000    991.24567   -32246.402    1076.1518    -31170.25    909.91319    1111.6177    1511.9967   -201.70454 
 1136000    1005.1071   -32261.416    1091.2006   -31170.215    855.18605    1195.7039    1517.6046   -340.51782 
 1140000    995.90413   -32251.489    1081.2093    -31170.28    969.75499    1166.5479     1522.811   -196.79291 
 1144000    998.76696   -32254.548    1084.3173   -31170.231    872.70996    1101.2937    1528.6615   -228.58369 
 1148000    1004.5617   -32260.871    1090.6084   -31170.262    913.99064    1247.4125    1533.7603   -333.42186 
 1152000    997.64118   -32253.339    1083.0951   -31170.244     919.9886    1117.4202    1538.8137    -197.4316 
 1156000    1005.3772   -32261.768    1091.4938   -31170.274    927.43808    1086.5959    1544.6473   -159.15778 
 1160000    1006.1603   -32262.589    1092.3439   -31170.246    791.33451    1135.3438    1549.7157   -344.00926 
 1164000    999.44178   -32255.307    1085.0499   -31170.257    865.99523    1113.2209    1555.1339   -247.22563 
 1168000     1008.901   -32265.539    1095.3194   -31170.219    981.79875    1194.9329    1560.5562   -213.13414 
 1172000    995.34768   -32250.845    1080.6051   -31170.239     982.7811    1153.6046    1565.5977   -170.82347 
 1176000    1006.9093   -32263.376     1093.157   -31170.219    961.76637    1163.8352    1570.9925   -202.06878 
 1180000    1000.5696    -32256.51    1086.2743   -31170.235    923.31939    1173.6579    1575.8403   -250.33852 
 1184000    1002.8362   -32258.945    1088.7351    -31170.21    936.57659    1140.2715    1581.0571   -203.69493 
 1188000    1001.8125   -32257.863    1087.6237    -31170.24    872.94494    1139.3137    1586.4024   -266.36873 
 1192000     1002.941   -32259.073    1088.8488   -31170.225    840.47143    1199.4539    1591.4821   -358.98249 
 1196000    1017.1135    -32274.44    1104.2353   -31170.205    928.42642    1250.8045    1596.6028   -322.37803 
 1200000    1003.8763   -32260.061    1089.8643   -31170.196    937.56089     1051.743    1602.7381   -114.18207 
 1204000    1009.8938   -32266.623    1096.3972   -31170.226    789.23287    1131.1824    1607.8897   -341.94955 
 1208000    1004.9757   -32261.285    1091.0579   -31170.227    972.75136    1162.7326    1613.9124   -189.98126 
 1212000    1002.5169   -32258.612    1088.3885   -31170.224    924.12955    1118.2254    1619.3531   -194.09583 
 1216000     1003.841   -32260.077    1089.8259   -31170.251    986.64884    1176.0994    1624.7965   -189.45052 
 1220000    1005.6289   -32261.989     1091.767   -31170.222    884.61393    1207.1061    1630.1524    -322.4922 
 1224000    1000.1545   -32256.069    1085.8237   -31170.245    939.82938    1034.3277    1635.5993    -94.49837 
 1228000    1001.0314   -32257.025    1086.7757   -31170.249    1002.9811    1053.6659    1640.9387   -50.684804 
 1232000    1005.2566   -32261.602    1091.3628   -31170.239    936.74996    1080.3032    1646.4548   -143.55327 
 1236000    1013.4655   -32270.517    1100.2749   -31170.242    1035.4554    1094.7404    1651.3651   -59.284938 
 1240000    1000.6946   -32256.716      1086.41   -31170.306    894.79383    1159.4927    1657.9029   -264.69886 
 1244000    1002.0585   -32258.169    1087.8908   -31170.278    945.20479    1126.2715    1663.5818   -181.06675 
 1248000    1011.5749     -32268.5    1098.2223   -31170.277    786.77994    1050.0791     1668.898   -263.29919 
 1252000    999.12574   -32255.002    1084.7068   -31170.295    904.11074     1065.239    1674.6014    -161.1283 
 1256000    998.57365   -32254.388    1084.1074   -31170.281    934.98663    1057.6881    1679.6665   -122.70142 
 1260000    998.76802   -32254.556    1084.3185   -31170.238    978.40541    1044.6247    1685.2086   -66.219286 
 1264000    1003.0524   -32259.231    1088.9698   -31170.261    930.21861    1044.2179    1690.2847    -113.9993 
 1268000    993.39249   -32248.768    1078.4825   -31170.285    901.93044    1079.9363    1695.3984   -178.00584 
 1272000    1005.3811   -32261.735     1091.498   -31170.237    961.62823    1069.3492     1700.624   -107.72092 
 1276000    996.97294   -32252.618    1082.3696   -31170.248    989.50796     1120.227    1705.4203   -130.71906 
 1280000    996.67453   -32252.329    1082.0456   -31170.283    906.43043    1039.7801     1711.082   -133.34967 
 1284000    994.18341   -32249.612    1079.3411   -31170.271    859.35766    979.80123     1716.554   -120.44357 
 1288000    1000.1669    -32256.12    1085.8372   -31170.283    872.02457     1079.531    1721.6347   -207.50644 
 1292000    1002.1008   -32258.226    1087.9367    -31170.29    781.21666    1014.0261    1727.0923   -232.80943 
 1296000    998.84589   -32254.667     1084.403   -31170.264    923.62895    1099.1444     1732.588   -175.51544 
 1300000    1002.3697    -32258.49    1088.2286   -31170.262    984.94604    1007.8174    1738.6006   -22.871359 
 1304000     998.1119   -32253.881    1083.6061   -31170.275     978.4963    1115.2295    1743.8018   -136.73321 
 1308000    989.74253   -32244.804    1074.5199   -31170.284    871.82675    1121.0046    1748.5767   -249.17786 
 1312000    1010.0997   -32266.875    1096.6207   -31170.255     938.9392    1135.6617    1753.7115   -196.72247 
 1316000    1009.9782   -32266.772    1096.4889   -31170.283    936.67522    1187.4949    1758.9259   -250.81965 
 1320000    998.43983   -32254.224    1083.9621   -31170.262     832.7337    1061.4019    1764.3722   -228.66823 
 1324000     1008.348   -32264.988     1094.719   -31170.269    830.50375    1124.8134    1769.8069    -294.3097 
 1328000    1005.8176   -32262.242    1091.9719   -31170.271    865.21772    1123.6067    1774.9115   -258.38895 
 1332000    997.59753   -32253.323    1083.0477   -31170.275    966.34851    1123.1777    1779.8631   -156.82916 
 1336000    992.32872   -32247.624    1077.3276   -31170.296    859.11278    1039.2626    1784.7678    -180.1498 
 1340000    996.39163   -32252.029    1081.7385    -31170.29    922.87119     1112.134    1789.6408   -189.26279 
 1344000    1006.5915   -32263.096     1092.812   -31170.284    893.25716     1053.916    1794.2886   -160.65881 
 1348000    995.45488   -32251.015    1080.7215   -31170.293    997.41548    1073.3406    1799.2478   -75.925163 
 1352000    1000.8668   -32256.882    1086.5971   -31170.284    938.61728    1051.5139    1804.5787   -112.89666 
 1356000    998.10737   -32253.868    1083.6012   -31170.267    968.21889    1129.2046    1810.1797   -160.98573 
 1360000    1003.3655   -32259.574    1089.3097   -31170.264    1001.5467     1119.802    1815.9555   -118.25532 
 1364000    1000.0858   -32256.031    1085.7491   -31170.281    914.56869    1115.8136    1822.3605   -201.24491 
 1368000    998.99931   -32254.858    1084.5695   -31170.288    971.86655    1188.2597     1827.737   -216.39312 
 1372000    1005.0247   -32261.381    1091.1111    -31170.27    903.24865     1080.607    1833.5801   -177.35833 
 1376000    994.53832   -32250.016    1079.7264    -31170.29    971.82139    1107.0273    1838.9952    -135.2059 
 1380000    1005.0873   -32261.453    1091.1791   -31170.274    963.49693    1068.9443    1844.1176   -105.44737 
 1384000    997.66461   -32253.403    1083.1205   -31170.283     853.7492    1113.1219    1850.0742    -259.3727 
 1388000    1003.5278   -32259.736    1089.4859    -31170.25    772.57486    1133.2175     1855.374   -360.64261 
 1392000    999.58149   -32255.469    1085.2016   -31170.268    886.56104    1118.8389    1860.1641   -232.27788 
 1396000    994.35041   -32249.814    1079.5224   -31170.292    949.91549    1055.1976    1865.0754   -105.28213 
 1400000    999.35225   -32255.223    1084.9527    -31170.27    937.16692    1086.5143     1870.928   -149.34737 
 1404000    1011.2887   -32268.185    1097.9116   -31170.273    876.28343    1094.8174    1876.4781   -218.53396 
 1408000    1005.2693   -32261.642    1091.3766   -31170.265    1067.0411    1079.6471    1881.3672   -12.605978 
 1412000     999.5211   -32255.403     1085.136   -31170.267    803.42861    1113.0496    1887.0296   -309.62101 
 1416000    996.09385   -32251.681    1081.4152   -31170.266    851.16397    1077.6836    1892.9686   -226.51965 
 1420000    1004.9578   -32261.315    1091.0384   -31170.277    895.26327    1104.2507    1898.2104   -208.98741 
 1424000    1006.5562   -32263.053    1092.7738    -31170.28    918.57396    1134.1572    1903.3274   -215.58325 
 1428000    996.10764   -32251.685    1081.4302   -31170.255    857.82901    1110.4761    1908.0916   -252.64705 
 1432000    999.10988   -32254.958    1084.6896   -31170.268     906.2119    1079.0915    1913.5437   -172.87961 
 1436000    1007.4131   -32263.975     1093.704   -31170.271    940.75282    1109.0656     1918.889   -168.31283 
 1440000    994.44644   -32249.901    1079.6267   -31170.274    936.12923    1127.0486    1924.2967   -190.91935 
 1444000    1001.9593   -32258.062    1087.7831   -31170.278    981.94529    1237.7224    1930.0034   -255.77708 
 1448000    997.23665    -32252.96    1082.6559   -31170.304    906.38949    1132.2644    1934.9999   -225.87493 
 1452000    1006.0438   -32262.495    1092.2175   -31170.278    978.25309    1113.4628    1940.6228   -135.20971 
 1456000    1012.2444   -32269.233    1098.9491   -31170.284    947.78593    1222.9666     1945.828   -275.18064 
 1460000    1005.3179   -32261.703    1091.4293   -31170.274    939.47418    1086.8705    1951.3788   -147.39633 
 1464000    1000.0635   -32256.023    1085.7249   -31170.298    891.78395     1113.808    1957.0931   -222.02401 
 1468000     1001.861   -32257.973    1087.6763   -31170.296    922.23935    1144.8255    1962.2953   -222.58617 
 1472000     1011.269    -32268.13    1097.8902    -31170.24    1032.3128    1129.3193    1968.1799    -97.00646 
 1476000    998.09871   -32253.874    1083.5918   -31170.282    945.21033    1060.3654    1972.5552   -115.15504 
 1480000    999.10316   -32254.975    1084.6823   -31170.292    966.36331    1117.2016    1978.2748   -150.83827 
 1484000     999.0936    -32254.95    1084.6719   -31170.278    904.52611    1111.2625    1983.0943   -206.73642 
 1488000    1004.8219   -32261.153    1090.8908   -31170.262    930.06751    1077.8865     1988.359   -147.81904 
 1492000    1004.7742   -32261.109    1090.8391   -31170.269    901.05106    1152.2076    1993.6088   -251.15656 
 1496000    996.81098   -32252.455    1082.1938   -31170.261    952.96988    1122.3696    1999.0469    -169.3997 
 1500000     1003.708   -32259.922    1089.6816   -31170.241    896.66694    1120.8635    2003.9591   -224.19655 
 1504000    1008.2498   -32264.836    1094.6124   -31170.224    883.09562    1075.5382    2009.0019   -192.44259 
 1508000    995.78031   -32251.348    1081.0748   -31170.273    931.79976    1098.6417    2013.8369   -166.84199 
 1512000    996.71281   -32252.346    1082.0872   -31170.259    941.96929    1061.3782    2018.8538   -119.40891 
 1516000    989.29987   -32244.303    1074.0393   -31170.264    925.87186    1087.7772    2023.8688    -161.9053 
 1520000    995.53911   -32251.064     1080.813   -31170.251    961.29794    1167.3979    2029.0503   -206.09993 
 1524000    1000.1313   -32256.062    1085.7985   -31170.264    992.97046    1133.2644    2034.3246   -140.29399 
 1528000    992.12155    -32247.34    1077.1027   -31170.238    969.26753    1027.9249    2039.3206   -58.657399 
 1532000    1002.0504   -32258.169     1087.882   -31170.287    990.66473    1108.0429    2044.3722   -117.37816 
 1536000     988.7713   -32243.695    1073.4654    -31170.23    999.35855    1052.1977    2049.3748   -52.839132 
 1540000    1004.4465   -32260.724    1090.4833   -31170.241    961.76481    1008.0002    2055.2444   -46.235422 
 1544000    997.72008   -32253.407    1083.1807   -31170.227    890.33728    1085.6323    2061.0031   -195.29505 
 1548000    1006.7243   -32263.174    1092.9563   -31170.218    929.29981     1139.076    2066.2538   -209.77618 
 1552000    1003.6513   -32259.859      1089.62   -31170.239    914.07184    1177.0721    2071.1554   -263.00023 
 1556000    994.82744   -32250.278    1080.0403   -31170.237    1016.9645    1104.3608    2075.7186   -87.396229 
 1560000    1002.0818   -32258.153    1087.9161   -31170.237      962.526    1091.7737    2081.2905   -129.24775 
 1564000    995.19731   -32250.685    1080.4419   -31170.243    1017.5862    1003.2506    2086.8884    14.335571 
 1568000    1002.8428   -32258.968    1088.7422   -31170.226    906.40559    1041.3454    2092.6496   -134.93978 
 1572000    1011.1259   -32267.958    1097.7348   -31170.223    995.86792    1049.6745    2098.4621   -53.806533 
 1576000    1000.4755   -32256.395    1086.1722   -31170.223    939.74081    1080.8125    2104.3967   -141.07168 
 1580000    1000.2454   -32256.119    1085.9224   -31170.197    942.37554    1094.0612    2109.9851   -151.68566 
 1584000     1003.288   -32259.435    1089.2255   -31170.209    817.19778    1025.7873     2114.974   -208.58951 
 1588000    1001.0849   -32257.058    1086.8338   -31170.224    886.62044    1061.5403    2120.0022    -174.9199 
 1592000    1004.3942   -32260.635    1090.4265   -31170.208    1017.4083    1077.1834    2124.9063   -59.775029 
 1596000    1000.4445   -32256.372    1086.1386   -31170.233    950.23396    1081.7055    2130.1658   -131.47151 
 1600000    1005.7037   -32262.059    1091.8482   -31170.211    1027.3308    1105.2638    2135.3653    -77.93293 
 1604000    1000.5275   -32256.467    1086.2287   -31170.238    902.09764    1037.0871    2140.2614   -134.98942 
 1608000    1000.3417   -32256.247    1086.0269    -31170.22    946.98661    1170.0202    2145.0652   -223.03363 
 1612000     997.7456   -32253.434    1083.2085   -31170.225    973.66044    1117.2625    2150.3372   -143.60209 
 1616000    996.13418   -32251.676     1081.459   -31170.217    909.36924     1102.088    2155.5676   -192.71873 
 1620000    1011.0074   -32267.831    1097.6063   -31170.225    932.36038    1101.5613    2161.3111   -169.20089 
 1624000    991.60995    -32246.79    1076.5473   -31170.243    790.20402    1149.8528    2166.9444   -359.64877 
 1628000    1007.7772   -32264.332    1094.0994   -31170.233    1026.9056    1088.6417    2171.9089   -61.736125 
 1632000    1007.1327   -32263.624    1093.3996   -31170.225    964.67704    1083.4612      2177.46   -118.78412 
 1636000    991.73925   -32246.932    1076.6876   -31170.244    946.34734    1027.1866    2182.3576   -80.839235 
 1640000    1000.2051   -32256.099    1085.8786   -31170.221    867.94187    1086.3864    2188.0163   -218.44457 
 1644000    1003.1967    -32259.37    1089.1265   -31170.244    839.06561    1097.3495    2193.9924   -258.28391 
 1648000    1003.2621    -32259.46    1089.1975   -31170.262     867.6573    1086.7222    2198.8461   -219.06488 
 1652000    996.04585    -32251.58    1081.3631   -31170.217    914.32966    1099.6287    2204.0448   -185.29903 
 1656000    1018.5886   -32276.095    1105.8368   -31170.258    852.70577    1142.2926    2209.1456   -289.58681 
 1660000    1009.8059   -32266.559    1096.3018   -31170.257    959.49618    1094.8503    2215.0208   -135.35412 
 1664000     998.4483   -32254.221    1083.9713    -31170.25    892.11383    1147.0606    2220.0262   -254.94681 
 1668000     1004.792   -32261.106    1090.8585   -31170.247    980.42055    1083.5048    2225.6655   -103.08428 
 1672000    997.22314   -32252.915    1082.6412   -31170.274    887.22868    1084.2174    2230.3917   -196.98874 
 1676000    1011.3132    -32268.21    1097.9382   -31170.272    908.91368    1096.6511    2236.3382   -187.73743 
 1680000    1000.4399   -32256.408    1086.1335   -31170.274    893.61874     1061.176    2241.5063   -167.55729 
 1684000    1005.9868   -32262.399    1092.1555   -31170.243    871.16172    1163.9592    2246.8449   -292.79746 
 1688000    995.02236   -32250.526     1080.252   -31170.274    951.43568    1091.9117     2251.875   -140.47603 
 1692000    1004.9045   -32261.259    1090.9806   -31170.278    846.30911    1101.0924    2257.0722   -254.78332 
 1696000     994.5796   -32250.055    1079.7713   -31170.284    881.44736    1126.0833    2262.3447   -244.63595 
 1700000    996.77646   -32252.412    1082.1563   -31170.256    812.26808    1196.6137    2268.0864    -384.3456 
 1704000    1005.9722   -32262.426    1092.1397   -31170.287      901.701    1147.4531    2273.0019   -245.75209 
 1708000    1005.3276   -32261.718    1091.4399   -31170.278    880.08818    1070.1863    2277.8562   -190.09813 
 1712000    991.78577   -32247.032    1076.7381   -31170.294     831.4585    1070.9382     2283.774   -239.47966 
 1716000    993.02455   -32248.354     1078.083   -31170.271    955.81782    1069.9458    2288.9951   -114.12796 
 1720000    989.32591   -32244.369    1074.0676   -31170.301    934.74236    1053.5755    2294.6663   -118.83312 
 1724000    988.92609   -32243.908    1073.6335   -31170.275    913.58875    1061.8368    2300.3845   -148.24804 
 1728000    995.22355   -32250.753    1080.4704   -31170.283    985.47658    1076.5565    2305.7128   -91.079905 
 1732000     996.6079   -32252.241    1081.9733   -31170.268    940.89829    1125.6785    2311.4918   -184.78018 
 1736000    1001.1388   -32257.158    1086.8923   -31170.266    926.23228    1093.1659    2317.3699   -166.93367 
 1740000    998.27353   -32254.038    1083.7816   -31170.257    917.95104    1116.1034    2322.9397   -198.15239 
 1744000    1010.6537    -32267.48    1097.2222   -31170.258    909.40918    1095.2344    2328.6438   -185.82522 
 1748000    991.17503   -32246.359    1076.0751   -31170.284    947.82907    1130.0725    2333.5446    -182.2434 
 1752000    995.48528   -32251.039    1080.7545   -31170.284      967.393    1132.6407      2338.59   -165.24768 
 1756000    987.45222   -32242.322    1072.0334   -31170.289     1034.164    1062.1734    2343.5632   -28.009358 
 1760000    1002.5797   -32258.733    1088.4566   -31170.276    1037.1605     1084.777    2349.0488   -47.616543 
 1764000     1009.718   -32266.511    1096.2063   -31170.304    982.34163    1080.2527    2354.2384   -97.911041 
 1768000    990.78115   -32245.972    1075.6475   -31170.324    935.35158    1152.6117    2359.3265   -217.26012 
 1772000    999.74553   -32255.672    1085.3797   -31170.293     1061.966    1061.0887    2364.7294   0.87733793 
 1776000    1018.1819   -32275.665    1105.3952   -31170.269    1017.3718    1154.4731    2370.0847   -137.10129 
 1780000    999.14196   -32254.995    1084.7244   -31170.271    1015.9984    1100.0202    2375.9176   -84.021787 
 1784000    1002.3732   -32258.544    1088.2325   -31170.311    970.40199     1057.574    2381.8559   -87.171988 
 1788000    998.30869   -32254.122    1083.8198   -31170.302    1109.5093    1023.6726    2387.4211    85.836775 
 1792000    1008.9573   -32265.669    1095.3805   -31170.288    896.85761    1143.2504    2392.5064   -246.39278 
 1796000     1003.181   -32259.377    1089.1095   -31170.267    950.00206    1106.3261    2398.1592   -156.32404 
 1800000     995.3332   -32250.869    1080.5894    -31170.28    750.00058    1132.9173    2403.5239   -382.91675 
 1804000    999.25874   -32255.139    1084.8512   -31170.288    862.00132    1178.2486    2408.8877   -316.24731 
 1808000    1003.6073   -32259.869    1089.5723   -31170.296    963.65918    1135.2376    2414.0938   -171.57841 
 1812000    998.78671   -32254.617    1084.3387   -31170.278    990.74617    1105.6462    2419.3951   -114.90002 
 1816000    1002.6661   -32258.845    1088.5504   -31170.294    1026.0536    1121.8258    2424.8001   -95.772233 
 1820000    1001.6787   -32257.794    1087.4785   -31170.315    952.05082    1175.8645    2429.7844    -223.8137 
 1824000    1009.1135   -32265.793    1095.5501   -31170.243    902.65353      1086.46    2435.3221   -183.80646 
 1828000    999.76152   -32255.651    1085.3971   -31170.254     961.1234    971.55152    2440.4444   -10.428121 
 1832000    1005.7694   -32262.194    1091.9195   -31170.275    881.00343    1086.4634     2445.924   -205.45997 
 1836000    1004.0601   -32260.341    1090.0639   -31170.277    942.07692    1071.2825     2451.406    -129.2056 
 1840000    993.26692   -32248.626    1078.3462    -31170.28     928.9717    1107.5647    2456.5485   -178.59303 
 1844000    994.69401   -32250.165    1079.8955   -31170.269    785.80783    1136.5157    2461.9807   -350.70786 
 1848000     994.6805   -32250.188    1079.8808   -31170.308    930.38207    1063.1669    2467.6328    -132.7848 
 1852000    1000.2517   -32256.205    1085.9292   -31170.275    846.92051    1068.9095    2472.5499   -221.98897 
 1856000    996.01833   -32251.634    1081.3332   -31170.301    887.03592    1082.1541    2477.4167   -195.11821 
 1860000    999.60991   -32255.528    1085.2325   -31170.296    951.44575    1141.4114    2483.1542   -189.96568 
 1864000    998.46856     -32254.3    1083.9933   -31170.307    964.47763     1080.047    2488.8064   -115.56941 
 1868000    997.82227   -32253.582    1083.2917    -31170.29    978.36072    1009.2033    2494.1399   -30.842553 
 1872000    1003.4879   -32259.718    1089.4426   -31170.276    1034.1107    1167.0367    2499.7009   -132.92595 
 1876000    998.44818   -32254.244    1083.9712   -31170.273    941.05778    1065.1088    2504.9978   -124.05099 
 1880000    1010.4504   -32267.269    1097.0015   -31170.268    1016.3696    1141.7443    2510.0279   -125.37467 
 1884000    1002.2813   -32258.418    1088.1326   -31170.285    915.18093    1144.8995    2515.5876   -229.71861 
 1888000    995.49951   -32251.076      1080.77   -31170.306     903.3102    1017.3581    2520.2732   -114.04787 
 1892000    1013.5689   -32270.685    1100.3871   -31170.298    850.37799    1120.4586    2525.5269   -270.08065 
 1896000    1000.6676   -32256.663    1086.3807   -31170.282    880.61065    1159.7845    2530.7408   -279.17386 
 1900000    1005.1408   -32261.529    1091.2371   -31170.292      829.286    1154.9301    2535.8411    -325.6441 
 1904000    999.08989    -32254.96    1084.6679   -31170.292    892.12436    1116.8773    2541.3362   -224.75295 
 1908000    1008.5758   -32265.284    1094.9663   -31170.318     916.4844    1131.3193    2546.2597   -214.83493 
 1912000    1005.9227   -32262.402     1092.086   -31170.316    900.79981    1120.8193    2551.7188   -220.01947 
 1916000     996.9213   -32252.601    1082.3135   -31170.288     869.8665    1058.6667    2557.2881   -188.80019 
 1920000    1003.8119     -32260.1    1089.7944   -31170.306    940.26224    1092.4242    2562.3524   -152.16193 
 1924000    1006.7231   -32263.242    1092.9549   -31170.287    900.95476    1103.4435    2567.8487   -202.48873 
 1928000    1000.7608   -32256.739    1086.4819   -31170.258    946.41764    1123.9876    2573.3762   -177.56997 
 1932000    997.02376   -32252.692    1082.4248   -31170.267    987.39077     1137.702    2578.5694   -150.31119 
 1936000    1008.6385   -32265.288    1095.0344   -31170.254    929.33502    1126.5447    2584.6301   -197.20964 
 1940000    999.21812   -32255.055    1084.8071   -31170.248    866.93134    1081.5583    2589.8761   -214.62699 
 1944000    995.49548   -32251.035    1080.7656   -31170.269    864.12705    1121.4837    2595.4917   -257.35664 
 1948000    997.84852   -32253.564    1083.3202   -31170.243    869.40441    1054.5157    2600.6442    -185.1113 
 1952000    1003.9529    -32260.22    1089.9474   -31170.272    957.93077    1124.4828    2605.6185     -166.552 
 1956000    997.64988    -32253.37    1083.1045   -31170.265    932.33581    1071.8502    2610.1855   -139.51444 
 1960000    1003.0053   -32259.163    1088.9186   -31170.244    914.98718    1190.7424    2614.7519   -275.75523 
 1964000    1000.9236    -32256.89    1086.6587   -31170.231     906.3643    1213.8396    2619.9236   -307.47531 
 1968000    992.25448   -32247.482     1077.247   -31170.235    907.23622    1077.6979    2624.9439   -170.46165 
 1972000    998.47026   -32254.242    1083.9952   -31170.247    1046.9557    1103.1975     2630.946   -56.241778 
 1976000    1000.1238   -32256.026    1085.7903   -31170.235     991.5933    1081.9953    2636.8097   -90.402018 
 1980000    1003.9226   -32260.138    1089.9145   -31170.224    874.95514     1067.452    2642.3139   -192.49687 
 1984000    999.00383   -32254.836    1084.5745   -31170.261    945.98329    1131.7476    2647.6493   -185.76428 
 1988000    985.64548   -32240.296    1070.0719   -31170.224    993.85764    1125.2399    2653.2759   -131.38227 
 1992000    1000.0022   -32255.926    1085.6584   -31170.268    931.24984    1061.7179    2659.0376   -130.46804 
 1996000    990.15168   -32245.202    1074.9641   -31170.238    933.62302     1237.178    2664.4016     -303.555 
 2000000    996.33416   -32251.924    1081.6761   -31170.248    842.51036    1151.3631    2670.1514   -308.85274 
 2004000    1002.2764   -32258.375    1088.1274   -31170.247    855.21247    1073.5982     2675.781   -218.38572 
 2008000    997.79089   -32253.498    1083.2576   -31170.241    912.19607    1175.3033    2681.0472   -263.10728 
 2012000    1001.6424   -32257.685    1087.4391   -31170.246    846.68729    1131.8663    2686.2275   -285.17905 
 2016000    1007.5177   -32264.057    1093.8176    -31170.24    953.64579    1106.3359    2692.0328   -152.69006 
 2020000    1000.0705   -32255.988    1085.7325   -31170.256    885.33139    1120.1812    2697.9946   -234.84981 
 2024000    1003.7549   -32259.991    1089.7325   -31170.258    897.38574    1182.1435    2703.5573    -284.7578 
 2028000    1009.2861   -32266.018    1095.7375   -31170.281    866.70553    1111.6423    2709.1362   -244.93681 
 2032000    1000.9313   -32256.937     1086.667    -31170.27     949.7197    1116.1825    2713.9464   -166.46278 
 2036000    1004.1946   -32260.478    1090.2098   -31170.268     1009.396    1198.4607    2718.8956   -189.06469 
 2040000    1004.6927   -32261.044    1090.7506   -31170.293    966.29582    1118.6368    2724.1356   -152.34095 
 2044000    1001.4623   -32257.521    1087.2435   -31170.278    843.85293    1165.9143    2729.0892   -322.06134 
 2048000    1005.0462   -32261.395    1091.1344    -31170.26    934.22105    1047.5711    2733.5801   -113.35009 
 2052000    1009.6678   -32266.415    1096.1519   -31170.263    878.93803    1144.9552    2738.3764   -266.01717 
 2056000     1006.789   -32263.288    1093.0265   -31170.262     1031.582     1154.812    2743.3196   -123.22997 
 2060000    997.78153   -32253.537    1083.2475   -31170.289    951.87074     1065.461    2749.3555   -113.59025 
 2064000    1002.1286   -32258.244    1087.9669   -31170.277    833.47768     1124.046    2754.8285   -290.56829 
 2068000    992.51553   -32247.825    1077.5304   -31170.295    826.23131    1122.4438     2760.332   -296.21248 
 2072000    995.80667   -32251.404    1081.1034   -31170.301    965.33997    1074.3761    2765.2768   -109.03611 
 2076000    999.82123   -32255.743    1085.4619   -31170.281    964.50387    1035.5568    2770.2214   -71.052891 
 2080000    987.11744   -32241.938    1071.6699   -31170.268    848.05295    1057.9763    2775.4756   -209.92339 
 2084000    999.30049   -32255.183    1084.8965   -31170.287     979.6184    1133.7105    2780.6474   -154.09211 
 2088000    999.32036   -32255.147    1084.9181   -31170.229    1110.8192     1102.884    2786.1111    7.9352115 
 2092000    994.69683   -32250.148    1079.8985   -31170.249    1033.8189    1130.8623    2791.3701   -97.043471 
 2096000    1000.8727    -32256.87    1086.6034   -31170.266    899.78869    1090.9742    2796.7957   -191.18548 
 2100000    1003.8588   -32260.088    1089.8453   -31170.242    866.57372    1244.2203    2801.8991    -377.6466 
 2104000    987.50826   -32242.359    1072.0942   -31170.264    931.85774    1058.5304    2807.5155   -126.67265 
 2108000    1007.4004   -32263.949    1093.6903   -31170.259    918.30539    1103.4322    2812.5977   -185.12681 
 2112000    1012.5509   -32269.535    1099.2819   -31170.253    910.35604    1184.5148    2817.6029   -274.15872 
 2116000    997.69313   -32253.402    1083.1515   -31170.251    903.85346    1145.8965    2823.4318   -242.04303 
 2120000    1001.0323   -32257.038    1086.7766   -31170.261    897.33196     1106.105    2828.0984   -208.77307 
 2124000    993.08427   -32248.403    1078.1479   -31170.256    881.05129    1024.1585    2833.4618   -143.10719 
 2128000    988.26533   -32243.159    1072.9161   -31170.243    961.16873    1019.3646     2838.522    -58.19588 
 2132000    996.60554    -32252.21    1081.9707   -31170.239    887.76509    971.64629    2843.5619   -83.881203 
 2136000     1006.892   -32263.378    1093.1383    -31170.24    860.26129    1068.8589    2848.9398   -208.59758 
 2140000    999.09904   -32254.909    1084.6778   -31170.232    956.07931    1111.2079    2855.5173   -155.12863 
 2144000    1003.7182    -32259.95    1089.6926   -31170.257    890.60953    1170.0046    2860.9221   -279.39507 
 2148000    1006.4991   -32262.955    1092.7117   -31170.244    976.93505    1126.3584    2866.1333   -149.42336 
 2152000    1004.8128   -32261.104    1090.8811   -31170.223    877.08432    1199.8448    2871.3041   -322.76045 
 2156000    997.66402    -32253.37    1083.1199    -31170.25    859.00835    1070.6937    2876.3775   -211.68538 
 2160000     1009.666   -32266.393    1096.1499   -31170.244    966.00763    1087.3388    2881.6006   -121.33116 
 2164000     1006.863   -32263.338    1093.1068   -31170.231    833.34896    1179.3045      2886.36   -345.95557 
 2168000    998.42167   -32254.145    1083.9424   -31170.203    928.44209    1103.8214     2891.363   -175.37929 
 2172000    1004.3789   -32260.637      1090.41   -31170.227    939.54721     1139.053    2896.7406   -199.50577 
 2176000    1000.0288   -32255.898    1085.6872   -31170.211    979.03829    1142.2123    2902.1652   -163.17397 
 2180000    1001.1802   -32257.152    1086.9373   -31170.215    963.77024    1100.3272    2907.2811   -136.55691 
 2184000    992.83423   -32248.086    1077.8764    -31170.21    871.74149    1105.6221    2912.4592   -233.88057 
 2188000    993.23493   -32248.519    1078.3114   -31170.207    1005.6853    1019.9468     2917.779   -14.261452 
 2192000    995.29148   -32250.727    1080.5441   -31170.183    850.65658    1009.9844     2923.205   -159.32781 
 2196000    991.59331   -32246.756    1076.5292   -31170.227    904.94433    1104.8799    2928.2474   -199.93553 
 2200000    1004.8292   -32261.069    1090.8988   -31170.171     923.3211    1064.2383    2933.7129   -140.91724 
 2204000    996.20977   -32251.712    1081.5411   -31170.171    903.54966    1084.8544    2938.5639   -181.30478 
 2208000    1007.0291   -32263.478    1093.2871   -31170.191    864.88172    1110.2443    2944.1417   -245.36261 
 2212000    1003.5291   -32259.684    1089.4873   -31170.197     953.0964    1138.1775    2950.1017   -185.08109 
 2216000    996.10352   -32251.609    1081.4257   -31170.184    875.22207    1124.2711    2955.3608     -249.049 
 2220000    993.79837    -32249.13    1078.9231   -31170.207    907.61394    1105.1327     2961.139   -197.51874 
 2224000    1004.6131   -32260.866    1090.6642   -31170.202     975.5091    1059.4069    2966.2976   -83.897788 
 2228000    1001.6135   -32257.646    1087.4077   -31170.238    934.35934    1145.7263    2971.1874   -211.36694 
 2232000    994.53153   -32249.902    1079.7191   -31170.183    962.01097    1082.7225    2976.9637   -120.71157 
 2236000    1007.5586   -32264.054     1093.862   -31170.192    931.65177    1115.9336    2983.0655   -184.28182 
 2240000    999.58269    -32255.41    1085.2029   -31170.207    929.57951    1083.9211    2987.9816   -154.34159 
 2244000    994.23874   -32249.601    1079.4012   -31170.199    942.20847    1096.2938    2993.2923   -154.08535 
 2248000    999.66252   -32255.485    1085.2896   -31170.196    900.45436    1155.0536    2998.9487   -254.59924 
 2252000    1014.3848   -32271.452    1101.2729   -31170.179    928.37428    1067.2145    3004.4519   -138.84024 
 2256000    999.94936   -32255.802     1085.601   -31170.201     1001.423     1166.213     3009.198   -164.79003 
 2260000    993.76426    -32249.06    1078.8861   -31170.174     853.3337    1098.6958    3014.4649   -245.36215 
 2264000    1007.7427   -32264.231    1094.0618   -31170.169    907.14813     1144.591    3020.1086   -237.44286 
 2268000    998.32395   -32254.051    1083.8363   -31170.215     899.8168    1127.7934    3025.8111   -227.97664 
 2272000    1004.7009   -32260.946    1090.7595   -31170.187    848.50837    1133.8542    3030.6067    -285.3458 
 2276000    989.54786    -32244.51    1074.3085   -31170.201    850.79163    1156.6553    3035.4389   -305.86364 
 2280000    1002.1655   -32258.212    1088.0069   -31170.205    957.45634    1136.9315    3041.4156   -179.47516 
 2284000    1003.2776   -32259.407    1089.2143   -31170.193    997.35201     1158.231    3046.8652   -160.87899 
 2288000    999.80054    -32255.65    1085.4394   -31170.211    783.84778      1130.62    3051.8357   -346.77221 
 2292000    996.91137   -32252.504    1082.3028   -31170.201    987.03709    1125.8305    3056.6255   -138.79337 
 2296000    1003.6889   -32259.841    1089.6608   -31170.181    829.27465    1188.0322    3061.9934   -358.75752 
 2300000    998.77666   -32254.511    1084.3278   -31170.183    929.09043    1184.9761    3068.0843   -255.88571 
 2304000    988.87242   -32243.776    1073.5752   -31170.201    893.27662    1061.5874    3073.0425   -168.31082 
 2308000    1008.0861   -32264.635    1094.4347     -31170.2    917.42903    1152.0745    3078.4319   -234.64549 
 2312000    1003.3309   -32259.468    1089.2722   -31170.196    834.72766    1105.9726    3083.9141   -271.24499 
 2316000    1013.1054   -32270.087    1099.8839   -31170.203    876.98953     1129.652    3088.8308   -252.66242 
 2320000    1008.4337   -32265.014    1094.8121   -31170.201    928.44512     1142.019    3093.9866   -213.57392 
 2324000    995.33545    -32250.81    1080.5919   -31170.218    907.98143    1127.6199    3099.1813   -219.63849 
 2328000     1007.571   -32264.081    1093.8754   -31170.205    970.60718    1179.8461    3104.5343   -209.23892 
 2332000    993.25576   -32248.557     1078.334   -31170.223    932.79346    1153.4559      3109.53   -220.66246 
 2336000    1001.1978   -32257.157    1086.9564   -31170.201    966.38907    1071.4132    3115.1045   -105.02413 
 2340000    1014.8437   -32271.977    1101.7711   -31170.206    925.10853    1081.4338    3120.7253   -156.32531 
 2344000    998.50108   -32254.248    1084.0286    -31170.22    932.58027    1140.4624    3125.7845   -207.88216 
 2348000    993.61164   -32248.909    1078.7204   -31170.189    941.20269    1014.1599    3131.5874   -72.957192 
 2352000    990.66538   -32245.691    1075.5218   -31170.169    847.97806    1049.9372    3137.4059   -201.95917 
 2356000    994.40077   -32249.788    1079.5771   -31170.211    858.88888    984.38779    3142.9774   -125.49891 
 2360000    1000.4976   -32256.409    1086.1962   -31170.213    901.59968    1047.9719    3148.7175   -146.37223 
 2364000     995.6119    -32251.11     1080.892   -31170.218    954.64283     1026.795    3153.5067   -72.152182 
 2368000    1013.1993   -32270.208    1099.9858   -31170.222    880.83755    1005.9801    3158.5358    -125.1425 
 2372000    996.21369   -32251.774    1081.5453   -31170.229    916.60447    1091.6463    3163.5042   -175.04182 
 2376000    993.18689   -32248.496    1078.2593   -31170.237     930.4733    1140.8723    3169.1939     -210.399 
 2380000    1014.8844   -32272.017    1101.8153   -31170.201    998.84149     1152.485      3174.39   -153.64347 
 2384000    1015.8736   -32273.111    1102.8892   -31170.222    950.36451    1110.1099    3180.1893   -159.74534 
 2388000    1006.0726   -32262.465    1092.2488   -31170.217    850.08179    1192.5716    3185.8541   -342.48978 
 2392000    1000.8278   -32256.728    1086.5547   -31170.173    842.43474    1207.4364    3190.7665   -365.00161 
 2396000    998.25051   -32253.969    1083.7566   -31170.212    845.20267    1158.3446    3195.6207   -313.14188 
 2400000    999.43483   -32255.253    1085.0424    -31170.21    835.32163    1119.2845     3200.951   -283.96291 
 2404000    995.70497   -32251.223     1080.993    -31170.23    843.77457    1099.5474    3206.5377   -255.77284 
 2408000     1017.325   -32274.674     1104.465   -31170.209    1008.6301    1148.0017    3212.1548   -139.37163 
 2412000    1005.8173   -32262.207    1091.9715   -31170.235    1062.7636    1090.1247      3218.17   -27.361094 
 2416000    1000.5968    -32256.52    1086.3039   -31170.216    858.73744    1093.6587    3223.1817   -234.92124 
 2420000    996.62149    -32252.21    1081.9881   -31170.222    944.91148    1106.5462     3228.396   -161.63469 
 2424000     994.2121   -32249.597    1079.3723   -31170.225    964.37207     1094.273    3233.2977   -129.90089 
 2428000    996.80599   -32252.372    1082.1884   -31170.184    824.11754    1075.5945    3238.7458   -251.47694 
 2432000    1002.8751   -32259.003    1088.7773   -31170.226    912.97525    1205.2999    3243.7679   -292.32465 
 2436000    999.68474   -32255.523    1085.3137   -31170.209     1031.833    1055.6326    3249.6054     -23.7996 
 2440000    1007.7602   -32264.307    1094.0808   -31170.227    920.39415    1111.3354    3255.4378   -190.94126 
 2444000    1013.7581   -32270.788    1100.5925   -31170.195    865.70828    1161.0066    3260.5174   -295.29828 
 2448000    1007.7707   -32264.319    1094.0923   -31170.227    964.84816    1170.0461    3265.6552   -205.19799 
 2452000    1001.8373   -32257.856    1087.6506   -31170.205    949.47812     1182.282    3271.2826   -232.80392 
 2456000    1000.4188    -32256.34    1086.1107    -31170.23     932.2923     1131.472    3276.1821   -199.17975 
 2460000    996.61464     -32252.2    1081.9806   -31170.219    1005.8669    1165.6192     3282.165    -159.7523 
 2464000     996.3876   -32251.933    1081.7341   -31170.199    883.19677    1169.5806    3287.3709   -286.38379 
 2468000    1001.0932   -32257.022    1086.8428   -31170.179    879.95282     1067.677    3293.4218    -187.7242 
 2472000     1002.503    -32258.57    1088.3733   -31170.197    863.24825    1102.2156    3298.6383   -238.96737 
 2476000    997.19447     -32252.8    1082.6101    -31170.19    1020.9097    1111.2393    3303.8412   -90.329554 
 2480000    1001.7321   -32257.737    1087.5364   -31170.201    884.01008     1123.072    3309.2959   -239.06188 
 2484000    1004.8744   -32261.135    1090.9478   -31170.187    905.92419    1128.1754    3314.2945   -222.25116 
 2488000    1000.4051   -32256.316    1086.0958    -31170.22    985.03342    1029.6418    3319.2655   -44.608384 
 2492000    992.40188   -32247.622     1077.407   -31170.215    836.90983    1067.2557     3324.896   -230.34588 
 2496000    1007.9364   -32264.473    1094.2721   -31170.201    941.72039    1145.4878    3330.8632   -203.76744 
 2500000    1013.0801   -32270.054    1099.8565   -31170.198    978.87438    1144.2153    3336.2314   -165.34093 
 2504000    993.78708   -32249.118    1078.9109   -31170.207    947.72046    1145.1329    3342.3446    -197.4124 
 2508000    990.33472   -32245.368    1075.1628   -31170.205    956.57428    1124.2564    3348.0052   -167.68208 
 2512000     1001.141   -32257.128    1086.8947   -31170.233    944.08532    1083.2514    3353.4434   -139.16607 
 2516000    1004.1339   -32260.341     1090.144   -31170.197     836.0792    1061.2822    3358.2788   -225.20298 
 2520000    995.26489   -32250.717    1080.5153   -31170.202    920.79436     1123.407    3363.3821   -202.61262 
 2524000    994.78574   -32250.184    1079.9951   -31170.189    914.16534    1052.6058    3368.1922   -138.44045 
 2528000    1000.1586    -32256.03    1085.8282   -31170.202    842.59644    1192.9406    3373.4361   -350.34418 
 2532000     993.1031   -32248.352    1078.1683   -31170.183    850.97138    1139.5055    3379.3406   -288.53408 
 2536000    1005.1217   -32261.431    1091.2164   -31170.215    856.85189    1159.4464    3384.8835   -302.59447 
 2540000    998.29511   -32253.998     1083.805   -31170.193    898.95086    1090.0839     3390.256   -191.13303 
[...]
11196000    1000.4485   -32256.388    1086.1429   -31170.245    4239.4307    -183.2889 
11200000    1001.6573   -32257.678    1087.4553   -31170.223    4245.0335     -267.433 
11204000    1006.2015    -32262.58    1092.3886   -31170.191    4250.3043   -174.91965 
11208000    991.25343   -32246.386    1076.1602   -31170.226    4255.5543   -193.72249 
11212000    997.12463   -32252.766    1082.5343   -31170.232    4260.5907   -281.20707 
11216000    1000.7205   -32256.692    1086.4382   -31170.254    4266.5159   -253.21838 
11220000    987.73897   -32242.597    1072.3447   -31170.253     4271.754   -260.44921 
11224000    1007.8668    -32264.45    1094.1966   -31170.253    4276.9797   -176.78006 
11228000    1003.6402   -32259.861    1089.6079   -31170.253    4282.9463   -74.272381 
11232000    993.46869    -32248.83    1078.5652   -31170.265     4288.774   -109.69537 
11236000     996.5082   -32252.133    1081.8651   -31170.268    4294.0106   -226.21852 
11240000    995.91491   -32251.457     1081.221   -31170.236    4299.6711   -225.90431 
11244000    992.55937   -32247.794     1077.578   -31170.216    4305.0764   -265.00062 
11248000    1010.6009   -32267.422    1097.1649   -31170.257    4310.4586   -46.108677 
11252000    994.75397   -32250.225    1079.9606   -31170.264    4315.9811   -157.69466 
11256000    1004.6439   -32260.926    1090.6977   -31170.228    4321.5027   -208.45501 
11260000    990.02759   -32245.087    1074.8294   -31170.258    4326.9839   -121.50841 
11264000    1003.7536   -32259.988     1089.731   -31170.257    4332.0719   -224.54616 
11268000    1001.6028   -32257.665     1087.396   -31170.269    4337.4825   -192.43935 
11272000    1004.6014   -32260.907    1090.6515   -31170.256    4342.6901   -94.829556 
11276000    1009.6802   -32266.394    1096.1653   -31170.228     4347.719   -243.00095 
11280000    999.60199   -32255.445    1085.2239   -31170.221    4352.9458   -185.43962 
11284000    998.93589   -32254.775    1084.5007   -31170.274    4358.5341   -217.63906 
11288000    1004.7934   -32261.096    1090.8599   -31170.236    4364.5595   -212.46622 
11292000    1003.4691   -32259.687    1089.4222   -31170.265    4369.7729   -244.28124 
11296000    999.23451   -32255.087    1084.8249   -31170.262    4375.0354   -183.23111 
11300000    1001.1716   -32257.171    1086.9279   -31170.243    4381.0321   -102.05572 
11304000    993.07657   -32248.401    1078.1395   -31170.261    4386.4572   -199.21468 
11308000    994.60329   -32250.042     1079.797   -31170.245    4391.5554   -194.69106 
11312000    999.41809   -32255.289    1085.0242   -31170.265    4396.5442   -301.19572 
11316000    992.68118   -32247.957    1077.7102   -31170.247    4402.6695   -131.60193 
11320000    998.99215   -32254.811    1084.5618   -31170.249    4408.4076   -106.87325 
11324000    1006.5517   -32263.018    1092.7688   -31170.249    4413.7822   -154.49782 
11328000    1001.4803   -32257.517     1087.263   -31170.254    4419.4414   -174.97021 
11332000    1004.0616   -32260.324    1090.0655   -31170.258    4424.2969   -158.38523 
11336000    1004.1586   -32260.403    1090.1708   -31170.232    4429.6726   -227.14714 
11340000    1008.9063   -32265.557    1095.3251   -31170.232    4435.1006   -283.85204 
11344000    995.36955   -32250.895    1080.6289   -31170.266    4440.7045   -123.42565 
11348000    1011.0891   -32267.953    1097.6949   -31170.258    4446.2369   -154.74177 
11352000    1004.5506   -32260.831    1090.5964   -31170.235     4450.801   -185.62352 
11356000    995.56907   -32251.088    1080.8455   -31170.243    4456.0214    -36.02608 
11360000    1003.6158   -32259.861    1089.5815   -31170.279    4460.8494   -218.96667 
11364000    1003.5996     -32259.8    1089.5639   -31170.236    4466.4141    -111.1711 
11368000    998.40976   -32254.202    1083.9295   -31170.272    4471.9024    -137.1261 
11372000    1000.4008   -32256.331     1086.091    -31170.24    4477.3689   -166.76272 
11376000    1005.7873   -32262.225     1091.939   -31170.286    4483.0759   -148.95271 
11380000     995.5042   -32251.058    1080.7751   -31170.283    4489.1844   -104.27736 
11384000    991.39065   -32246.597    1076.3092   -31170.288    4494.7023   -9.9067001 
11388000    1000.8204   -32256.791    1086.5467   -31170.244    4500.4539   -203.83876 
11392000    1004.7814   -32261.087    1090.8469    -31170.24     4505.857   -212.27584 
11396000     998.4949   -32254.269    1084.0219   -31170.247    4511.5864   -207.20227 
11400000    1013.1703   -32270.228    1099.9544   -31170.274    4516.9474    -253.7073 
11404000    1005.5096   -32261.901    1091.6375   -31170.263    4522.3746   -155.39953 
11408000    994.11961   -32249.541    1079.2719   -31170.269    4527.9839   -244.60453 
11412000    1004.0546   -32260.299    1090.0579   -31170.241    4533.6287   -255.52094 
11416000    1000.3009   -32256.247    1085.9826   -31170.264    4538.6466   -156.50978 
11420000     999.2507   -32255.073    1084.8425    -31170.23    4543.9745    -252.6791 
11424000    996.57763   -32252.195    1081.9404   -31170.255    4548.9824   -282.98506 
11428000    994.52004   -32249.974    1079.7066   -31170.268    4554.2034   -405.20737 
11432000    1001.6451   -32257.698     1087.442   -31170.256    4559.5739   -217.35643 
11436000    996.83774   -32252.452    1082.2228   -31170.229    4565.1393   -75.544713 
11440000      996.284   -32251.865    1081.6217   -31170.243     4570.731   -287.87579 
11444000      1002.73   -32258.834    1088.6198   -31170.214    4576.0585   -383.53599 
11448000    1000.1649   -32256.061     1085.835   -31170.226    4581.7522   -208.40732 
11452000    995.92902   -32251.471    1081.2363   -31170.235    4586.9292   -165.06902 
11456000    1006.7068   -32263.168    1092.9372   -31170.231    4593.0157   -216.39263 
11460000    1001.2676   -32257.276    1087.0321   -31170.244     4598.012   -250.88777 
11464000     997.8374   -32253.561    1083.3081   -31170.253    4603.5345   -263.19723 
11468000    998.39076   -32254.144    1083.9089   -31170.235    4609.7389   -99.716932 
11472000    1019.5227    -32277.08    1106.8509   -31170.229    4615.1018    -115.0393 
11476000    999.69315   -32255.558    1085.3228   -31170.235    4619.9449    -109.8298 
11480000    999.09744   -32254.917    1084.6761    -31170.24     4625.232    -275.8093 
11484000    991.32486   -32246.476    1076.2377   -31170.238    4630.3124   -177.75147 
11488000    996.42707   -32251.998     1081.777   -31170.221    4635.9643   -210.30356 
11492000    997.08974   -32252.739    1082.4964   -31170.242    4641.3453   -238.01624 
11496000    996.88699   -32252.518    1082.2763   -31170.241    4646.4291   -99.161835 
11500000    1003.9644   -32260.188    1089.9599   -31170.228     4651.953     -114.941 
11504000    1000.2627   -32256.151    1085.9411   -31170.209    4657.0141   -235.99113 
11508000    1002.9951   -32259.131    1088.9076   -31170.223    4662.6822   -75.930242 
11512000    988.04062   -32242.924    1072.6722   -31170.251    4667.7541   -166.74815 
11516000    1004.8009   -32261.099     1090.868   -31170.231    4673.2859   -159.18189 
11520000    986.46634   -32241.197    1070.9631   -31170.234    4678.4529   -200.84799 
11524000    992.23447   -32247.442    1077.2253   -31170.216    4683.8932   -222.78625 
11528000    1002.4038   -32258.454    1088.2656   -31170.188    4689.4144   -180.15926 
11532000     1000.235   -32256.125    1085.9111   -31170.214    4694.7722   -316.67076 
11536000    1006.6612   -32263.101    1092.8877   -31170.213    4699.8035   -41.239182 
11540000    1010.1189   -32266.867    1096.6416   -31170.225    4705.6563   -177.72124 
11544000    1006.6002   -32262.997    1092.8215   -31170.176    4711.8113    -176.1528 
11548000     995.1993   -32250.656    1080.4441   -31170.212     4717.659   -79.706586 
11552000    1005.0988    -32261.39    1091.1915   -31170.199     4722.972   -288.19439 
11556000    1000.8927   -32256.834    1086.6251   -31170.209    4729.1013   -278.35853 
11560000    1001.1141   -32257.028    1086.8655   -31170.163    4734.3451   -115.96201 
11564000    1002.8886   -32258.978     1088.792   -31170.186    4739.3879   -326.20232 
11568000    998.39785   -32254.099    1083.9166   -31170.182    4744.9456   -283.06584 
11572000    1004.1916   -32260.385    1090.2066   -31170.178     4750.881   -45.655231 
11576000    1011.3724   -32268.199    1098.0025   -31170.197    4756.1749   -210.16084 
11580000    1007.5112   -32263.997    1093.8105   -31170.187    4761.3096   -179.48996 
11584000    1002.6296    -32258.67    1088.5108   -31170.159    4766.9588   -232.12786 
11588000    1010.5141   -32267.255    1097.0707   -31170.184    4772.4143    -35.68478 
11592000    991.84027   -32246.956    1076.7973   -31170.159    4778.3355   -277.17266 
11596000    1016.3299   -32273.588    1103.3846   -31170.203    4783.6288    66.726756 
11600000    997.94998   -32253.612    1083.4303   -31170.182    4789.1469   -46.698321 
11604000    997.95025   -32253.596    1083.4306   -31170.165    4794.4405   -190.03687 
11608000    1007.9619   -32264.495    1094.2998   -31170.195    4799.7058    -209.8104 
11612000    1012.2997   -32269.198    1099.0092   -31170.189    4805.0913    -383.7179 
11616000    999.18712   -32254.978    1084.7735   -31170.205    4810.2043   -235.05308 
11620000    985.67786   -32240.288     1070.107   -31170.181     4816.032   -126.12008 
11624000    993.70973   -32249.042    1078.8269   -31170.215    4821.4504   -193.14113 
11628000    1004.9863   -32261.247    1091.0694   -31170.178    4827.1938   -169.41093 
11632000    1012.1768   -32269.074    1098.8757   -31170.198     4832.325   -254.45688 
11636000    1007.7357   -32264.253    1094.0543   -31170.199    4837.4052   -46.902577 
11640000    1013.4668   -32270.479    1100.2763   -31170.203    4842.8099   -257.73397 
11644000    996.88113   -32252.458    1082.2699   -31170.188    4848.1485   -265.35459 
11648000     995.5422   -32251.038    1080.8163   -31170.222    4853.1581   -205.10564 
11652000    999.19185   -32254.955    1084.7786   -31170.176    4858.1784   -311.36849 
11656000    993.67039   -32249.018    1078.7842   -31170.234    4863.2607   -148.80686 
11660000    995.65452   -32251.149    1080.9383    -31170.21    4868.6351   -102.89353 
11664000    1006.7261   -32263.147    1092.9582   -31170.189    4873.8391   -238.11524 
11668000    993.14179   -32248.418    1078.2103   -31170.207    4879.1211   -265.12452 
11672000    997.35148   -32253.011    1082.7806   -31170.231    4884.2924   -186.52083 
11676000    1008.9761   -32265.591    1095.4009    -31170.19    4889.8806   -183.02515 
11680000    997.50783   -32253.176    1082.9503   -31170.225    4895.5999   -193.21268 
11684000    1006.9853   -32263.438    1093.2396   -31170.198    4901.4168   -279.63282 
11688000    997.32619   -32252.945    1082.7531   -31170.192     4906.921   -86.989301 
11692000    996.85765   -32252.431    1082.2444   -31170.186    4912.6171   -127.47594 
11696000    997.21794   -32252.853    1082.6356   -31170.217    4917.5482   -228.80157 
11700000    993.97647   -32249.339    1079.1165   -31170.222    4923.5411   -73.901841 
11704000    996.21271   -32251.762    1081.5443   -31170.217    4928.6826   -127.14232 
11708000    1006.2512   -32262.628    1092.4426   -31170.186    4934.6802   -224.75114 
11712000    994.82543   -32250.225    1080.0382   -31170.187      4939.57   -210.22244 
11716000    1005.2898   -32261.617    1091.3989   -31170.218    4945.2057   -315.80484 
11720000    1005.1234   -32261.411    1091.2182   -31170.193    4950.6926   -171.36761 
11724000    1001.0181   -32256.934    1086.7612   -31170.173    4955.8182   -258.92701 
11728000    996.82288   -32252.413    1082.2067   -31170.206     4960.698   -281.71813 
11732000    1008.1722   -32264.721    1094.5282   -31170.193     4965.745   -229.55366 
11736000    999.64402   -32255.479    1085.2695    -31170.21    4970.9686   -220.65631 
11740000    996.65987   -32252.261    1082.0297   -31170.231    4976.0088   -106.56299 
11744000    1013.0587   -32270.053    1099.8332    -31170.22    4980.9599   -133.04087 
11748000    1005.3283   -32261.672    1091.4406   -31170.232    4986.0168   -317.21056 
11752000    1006.2386   -32262.668     1092.429   -31170.239    4991.7709   -430.41511 
11756000    1005.3691   -32261.698     1091.485   -31170.213    4996.7846   -238.73021 
11760000    992.86361   -32248.143    1077.9083   -31170.235    5002.3537   -137.71726 
11764000    995.87052   -32251.373    1081.1728     -31170.2     5007.009   -134.46138 
11768000    1005.2768   -32261.608    1091.3847   -31170.223    5012.3344   -213.54268 
11772000    995.69132   -32251.219    1080.9782   -31170.241    5017.3392   -237.39319 
11776000    1003.7595   -32259.955    1089.7375   -31170.217     5021.981   -303.09147 
11780000    1009.4083   -32266.093    1095.8701   -31170.223    5027.4306   -232.38425 
11784000    998.16891   -32253.892     1083.668   -31170.224    5032.8325   -276.18801 
11788000    1005.1416   -32261.463    1091.2379   -31170.225    5038.6429   -122.03897 
11792000     991.3041   -32246.434    1076.2152   -31170.219    5043.9041   -261.29208 
11796000    1003.6681   -32259.866    1089.6383   -31170.227    5048.6466   -160.38908 
11800000    992.59814    -32247.84    1077.6201    -31170.22    5053.9728    -246.0112 
11804000    996.89208   -32252.509    1082.2818   -31170.228     5059.326   -272.00699 
11808000    1003.2566   -32259.396    1089.1915   -31170.204    5064.0923     -253.829 
11812000    1007.1854   -32263.664    1093.4568   -31170.207    5068.8336   -256.50709 
11816000     995.6842   -32251.217    1080.9705   -31170.246    5074.2667   -161.53186 
11820000    999.83024     -32255.7    1085.4717   -31170.229    5079.5537   -159.90249 
11824000    998.41317   -32254.172    1083.9332   -31170.239    5084.6576   -353.28989 
11828000    1008.8846   -32265.547    1095.3016   -31170.245     5089.587   -132.67443 
11832000    999.50728   -32255.358     1085.121   -31170.237    5094.4948   -163.62348 
11836000     1003.239   -32259.403    1089.1724   -31170.231    5099.8757   -63.292522 
11840000    995.90449   -32251.464    1081.2096   -31170.254     5104.894   -229.16787 
11844000     995.7362   -32251.267    1081.0269   -31170.241    5110.5532   -141.25641 
11848000    1002.4995   -32258.585    1088.3695   -31170.215    5115.7472   -198.34774 
11852000    1008.3095   -32264.879    1094.6772   -31170.202    5121.0957    -216.7319 
11856000    1006.9054   -32263.383    1093.1528    -31170.23    5126.8752   -210.73146 
11860000    997.63926   -32253.332     1083.093   -31170.239    5132.0885   -86.546725 
11864000    997.71792   -32253.383    1083.1784   -31170.205    5137.7537   -361.31208 
11868000    996.24026   -32251.795    1081.5742   -31170.221    5143.1935   -174.17018 
11872000    1003.0899   -32259.241    1089.0105   -31170.231    5148.8863   -75.961985 
11876000    1014.4255   -32271.545     1101.317   -31170.228    5154.5231   -121.06734 
11880000    983.51557   -32237.998    1067.7595   -31170.238    5160.4272   -78.287415 
11884000    994.44516   -32249.854    1079.6253   -31170.228    5165.9512   -192.80029 
11888000    1004.2812   -32260.516    1090.3039   -31170.212    5171.3859   -159.76829 
11892000    1003.3159   -32259.514    1089.2559   -31170.258    5177.2307   -247.02427 
11896000    996.32906   -32251.933    1081.6706   -31170.262    5182.1699   -201.97336 
11900000    996.69417   -32252.315     1082.067   -31170.248    5187.4558   -284.64697 
11904000    994.25598   -32249.684    1079.4199   -31170.264    5192.5812   -199.96687 
11908000    997.39149    -32253.08     1082.824   -31170.256    5197.4191   -173.57751 
11912000    1010.5153   -32267.298     1097.072   -31170.226     5202.195   -259.15652 
11916000    1001.7745    -32257.84    1087.5824   -31170.257     5207.604   -179.71066 
11920000    998.18906   -32253.959    1083.6899   -31170.269    5212.4797   -307.67695 
11924000     1000.015   -32255.923    1085.6722   -31170.251    5217.6341   -158.20848 
11928000    988.95369   -32243.925    1073.6635   -31170.262     5223.241   -201.40015 
11932000    996.10776   -32251.696    1081.4303   -31170.266    5228.4877   -152.80178 
11936000    994.38779   -32249.847     1079.563   -31170.284    5233.5632   -258.86079 
11940000    998.16954   -32253.932    1083.6687   -31170.263    5239.0043   -212.24896 
11944000    1001.6582   -32257.669    1087.4562   -31170.213    5244.0645   -154.82653 
11948000    1002.4717   -32258.599    1088.3394    -31170.26    5250.0497   -179.88314 
11952000    1003.8005   -32260.034     1089.782   -31170.252    5255.2836    -229.4878 
11956000    999.19863   -32255.017    1084.7859   -31170.231    5260.6371   -72.636694 
11960000    1013.3505     -32270.4      1100.15    -31170.25    5265.8614   -117.98298 
11964000    1000.5418   -32256.499    1086.2441   -31170.255    5271.1684   -259.68363 
11968000    983.91315   -32238.452    1068.1912   -31170.261    5276.9847   -139.94367 
11972000    989.35609   -32244.346    1074.1003   -31170.246    5281.9436   -208.90874 
11976000    1017.9582   -32275.402    1105.1524    -31170.25    5287.9277   -180.18394 
11980000     992.6038   -32247.881    1077.6262   -31170.255    5293.5134   -106.35489 
11984000    998.58668   -32254.364    1084.1216   -31170.242    5299.1323   -213.10216 
11988000    1006.2287    -32262.68    1092.4182   -31170.262    5305.7419   -70.535038 
11992000    1006.1852    -32262.62     1092.371   -31170.249    5310.2362   -104.49092 
11996000    1001.8307    -32257.92    1087.6435   -31170.276    5315.3954   -219.58975 
12000000    1004.3747   -32260.678    1090.4054   -31170.273    5321.3264    -144.3592 
Loop time of 64193.9 on 16 procs for 4000000 steps with 8400 atoms

Performance: 5.384 ns/day, 4.458 hours/ns, 62.311 timesteps/s
59.4% CPU use with 16 MPI tasks x 1 OpenMP threads

MPI task timing breakdown:
Section |  min time  |  avg time  |  max time  |%varavg| %total
---------------------------------------------------------------
Pair    | 32803      | 34140      | 35671      | 446.5 | 53.18
Kspace  | 23323      | 25107      | 26768      | 624.5 | 39.11
Neigh   | 403.16     | 417        | 433.4      |  40.1 |  0.65
Comm    | 3262       | 3653.3     | 4256.3     | 490.8 |  5.69
Output  | 0.67469    | 0.67782    | 0.68395    |   0.3 |  0.00
Modify  | 104.57     | 108.2      | 115.88     |  30.2 |  0.17
Other   |            | 767.7      |            |       |  1.20

Nlocal:    525 ave 549 max 503 min
Histogram: 2 2 2 1 2 0 2 1 3 1
Nghost:    7180.25 ave 7445 max 6990 min
Histogram: 2 2 0 3 5 2 0 0 0 2
Neighs:    203542 ave 212938 max 192800 min
Histogram: 2 0 1 3 2 1 1 1 2 3

Total # of neighbors = 3256667
Ave neighs/atom = 387.698
Neighbor list builds = 101532
Dangerous builds = 0

write_restart   RNEMDfinal.restart
PPPM initialization ...
  using 12-bit tables for long-range coulomb (../kspace.cpp:332)
  G vector (1/distance) = 0.190725
  grid = 100 15 6
  stencil order = 5
  estimated absolute RMS force accuracy = 0.000570746
  estimated relative force accuracy = 3.96361e-05
  using double precision KISS FFT
  3d grid and FFT values/proc = 3192 624

write_data      RNEMDfinal.data  nocoeff
PPPM initialization ...
  using 12-bit tables for long-range coulomb (../kspace.cpp:332)
  G vector (1/distance) = 0.190725
  grid = 100 15 6
  stencil order = 5
  estimated absolute RMS force accuracy = 0.000570746
  estimated relative force accuracy = 3.96361e-05
  using double precision KISS FFT
  3d grid and FFT values/proc = 3192 624
Total wall time: 53:28:12
