NaCl 100*14*6

8400 atoms

2 atom types

  -1.500000000    279.1900000  xlo xhi		#模拟盒子x尺寸
  -1.500000000    39.53000000  ylo yhi
  -1.500000000    16.05000000  zlo zhi
  
Masses		# 原子质量

1 22.9898	# Na
2 35.45		# Cl

Atoms		#原子编号 种类 x y z

1		1		1		0		0		0
2		1		1		0		2.81		2.81
3		1		1		2.81		0		2.81
4		1		1		2.81		2.81		0
5		2		-1		2.81		2.81		2.81
6		2		-1		2.81		0		0
7		2		-1		0		2.81		0
8		2		-1		0		0		2.81
9		1		1		5.62		0		0
10		1		1		5.62		2.81		2.81
11		1		1		8.43		0		2.81
12		1		1		8.43		2.81		0
13		2		-1		8.43		2.81		2.81
14		2		-1		8.43		0		0
15		2		-1		5.62		2.81		0
16		2		-1		5.62		0		2.81
17		1		1		11.24		0		0
18		1		1		11.24		2.81		2.81
19		1		1		14.05		0		2.81
20		1		1		14.05		2.81		0
21		2		-1		14.05		2.81		2.81
22		2		-1		14.05		0		0
23		2		-1		11.24		2.81		0
24		2		-1		11.24		0		2.81
25		1		1		16.86		0		0
26		1		1		16.86		2.81		2.81
27		1		1		19.67		0		2.81
28		1		1		19.67		2.81		0
29		2		-1		19.67		2.81		2.81
30		2		-1		19.67		0		0
31		2		-1		16.86		2.81		0
32		2		-1		16.86		0		2.81
33		1		1		22.48		0		0
34		1		1		22.48		2.81		2.81
35		1		1		25.29		0		2.81
36		1		1		25.29		2.81		0
37		2		-1		25.29		2.81		2.81
38		2		-1		25.29		0		0
39		2		-1		22.48		2.81		0
40		2		-1		22.48		0		2.81
41		1		1		28.1		0		0
42		1		1		28.1		2.81		2.81
43		1		1		30.91		0		2.81
44		1		1		30.91		2.81		0
45		2		-1		30.91		2.81		2.81
46		2		-1		30.91		0		0
47		2		-1		28.1		2.81		0
48		2		-1		28.1		0		2.81
49		1		1		33.72		0		0
50		1		1		33.72		2.81		2.81
51		1		1		36.53		0		2.81
52		1		1		36.53		2.81		0
53		2		-1		36.53		2.81		2.81
54		2		-1		36.53		0		0
55		2		-1		33.72		2.81		0
56		2		-1		33.72		0		2.81
57		1		1		39.34		0		0
58		1		1		39.34		2.81		2.81
59		1		1		42.15		0		2.81
60		1		1		42.15		2.81		0
61		2		-1		42.15		2.81		2.81
62		2		-1		42.15		0		0
63		2		-1		39.34		2.81		0
64		2		-1		39.34		0		2.81
65		1		1		44.96		0		0
66		1		1		44.96		2.81		2.81
67		1		1		47.77		0		2.81
68		1		1		47.77		2.81		0
69		2		-1		47.77		2.81		2.81
70		2		-1		47.77		0		0
71		2		-1		44.96		2.81		0
72		2		-1		44.96		0		2.81
73		1		1		50.58		0		0
74		1		1		50.58		2.81		2.81
75		1		1		53.39		0		2.81
76		1		1		53.39		2.81		0
77		2		-1		53.39		2.81		2.81
78		2		-1		53.39		0		0
79		2		-1		50.58		2.81		0
80		2		-1		50.58		0		2.81
81		1		1		56.2		0		0
82		1		1		56.2		2.81		2.81
83		1		1		59.01		0		2.81
84		1		1		59.01		2.81		0
85		2		-1		59.01		2.81		2.81
86		2		-1		59.01		0		0
87		2		-1		56.2		2.81		0
88		2		-1		56.2		0		2.81
89		1		1		61.82		0		0
90		1		1		61.82		2.81		2.81
91		1		1		64.63		0		2.81
92		1		1		64.63		2.81		0
93		2		-1		64.63		2.81		2.81
94		2		-1		64.63		0		0
95		2		-1		61.82		2.81		0
96		2		-1		61.82		0		2.81
97		1		1		67.44		0		0
98		1		1		67.44		2.81		2.81
99		1		1		70.25		0		2.81
100		1		1		70.25		2.81		0
101		2		-1		70.25		2.81		2.81
102		2		-1		70.25		0		0
103		2		-1		67.44		2.81		0
104		2		-1		67.44		0		2.81
105		1		1		73.06		0		0
106		1		1		73.06		2.81		2.81
107		1		1		75.87		0		2.81
108		1		1		75.87		2.81		0
109		2		-1		75.87		2.81		2.81
110		2		-1		75.87		0		0
111		2		-1		73.06		2.81		0
112		2		-1		73.06		0		2.81
113		1		1		78.68		0		0
114		1		1		78.68		2.81		2.81
115		1		1		81.49		0		2.81
116		1		1		81.49		2.81		0
117		2		-1		81.49		2.81		2.81
118		2		-1		81.49		0		0
119		2		-1		78.68		2.81		0
120		2		-1		78.68		0		2.81
121		1		1		84.3		0		0
122		1		1		84.3		2.81		2.81
123		1		1		87.11		0		2.81
124		1		1		87.11		2.81		0
125		2		-1		87.11		2.81		2.81
126		2		-1		87.11		0		0
127		2		-1		84.3		2.81		0
128		2		-1		84.3		0		2.81
129		1		1		89.92		0		0
130		1		1		89.92		2.81		2.81
131		1		1		92.73		0		2.81
132		1		1		92.73		2.81		0
133		2		-1		92.73		2.81		2.81
134		2		-1		92.73		0		0
135		2		-1		89.92		2.81		0
136		2		-1		89.92		0		2.81
137		1		1		95.54		0		0
138		1		1		95.54		2.81		2.81
139		1		1		98.35		0		2.81
140		1		1		98.35		2.81		0
141		2		-1		98.35		2.81		2.81
142		2		-1		98.35		0		0
143		2		-1		95.54		2.81		0
144		2		-1		95.54		0		2.81
145		1		1		101.16		0		0
146		1		1		101.16		2.81		2.81
147		1		1		103.97		0		2.81
148		1		1		103.97		2.81		0
149		2		-1		103.97		2.81		2.81
150		2		-1		103.97		0		0
151		2		-1		101.16		2.81		0
152		2		-1		101.16		0		2.81
153		1		1		106.78		0		0
154		1		1		106.78		2.81		2.81
155		1		1		109.59		0		2.81
156		1		1		109.59		2.81		0
157		2		-1		109.59		2.81		2.81
158		2		-1		109.59		0		0
159		2		-1		106.78		2.81		0
160		2		-1		106.78		0		2.81
161		1		1		112.4		0		0
162		1		1		112.4		2.81		2.81
163		1		1		115.21		0		2.81
164		1		1		115.21		2.81		0
165		2		-1		115.21		2.81		2.81
166		2		-1		115.21		0		0
167		2		-1		112.4		2.81		0
168		2		-1		112.4		0		2.81
169		1		1		118.02		0		0
170		1		1		118.02		2.81		2.81
171		1		1		120.83		0		2.81
172		1		1		120.83		2.81		0
173		2		-1		120.83		2.81		2.81
174		2		-1		120.83		0		0
175		2		-1		118.02		2.81		0
176		2		-1		118.02		0		2.81
177		1		1		123.64		0		0
178		1		1		123.64		2.81		2.81
179		1		1		126.45		0		2.81
180		1		1		126.45		2.81		0
181		2		-1		126.45		2.81		2.81
182		2		-1		126.45		0		0
183		2		-1		123.64		2.81		0
184		2		-1		123.64		0		2.81
185		1		1		129.26		0		0
186		1		1		129.26		2.81		2.81
187		1		1		132.07		0		2.81
188		1		1		132.07		2.81		0
189		2		-1		132.07		2.81		2.81
190		2		-1		132.07		0		0
191		2		-1		129.26		2.81		0
192		2		-1		129.26		0		2.81
193		1		1		134.88		0		0
194		1		1		134.88		2.81		2.81
195		1		1		137.69		0		2.81
196		1		1		137.69		2.81		0
197		2		-1		137.69		2.81		2.81
198		2		-1		137.69		0		0
199		2		-1		134.88		2.81		0
200		2		-1		134.88		0		2.81
201		1		1		140.5		0		0
202		1		1		140.5		2.81		2.81
203		1		1		143.31		0		2.81
204		1		1		143.31		2.81		0
205		2		-1		143.31		2.81		2.81
206		2		-1		143.31		0		0
207		2		-1		140.5		2.81		0
208		2		-1		140.5		0		2.81
209		1		1		146.12		0		0
210		1		1		146.12		2.81		2.81
211		1		1		148.93		0		2.81
212		1		1		148.93		2.81		0
213		2		-1		148.93		2.81		2.81
214		2		-1		148.93		0		0
215		2		-1		146.12		2.81		0
216		2		-1		146.12		0		2.81
217		1		1		151.74		0		0
218		1		1		151.74		2.81		2.81
219		1		1		154.55		0		2.81
220		1		1		154.55		2.81		0
221		2		-1		154.55		2.81		2.81
222		2		-1		154.55		0		0
223		2		-1		151.74		2.81		0
224		2		-1		151.74		0		2.81
225		1		1		157.36		0		0
226		1		1		157.36		2.81		2.81
227		1		1		160.17		0		2.81
228		1		1		160.17		2.81		0
229		2		-1		160.17		2.81		2.81
230		2		-1		160.17		0		0
231		2		-1		157.36		2.81		0
232		2		-1		157.36		0		2.81
233		1		1		162.98		0		0
234		1		1		162.98		2.81		2.81
235		1		1		165.79		0		2.81
236		1		1		165.79		2.81		0
237		2		-1		165.79		2.81		2.81
238		2		-1		165.79		0		0
239		2		-1		162.98		2.81		0
240		2		-1		162.98		0		2.81
241		1		1		168.6		0		0
242		1		1		168.6		2.81		2.81
243		1		1		171.41		0		2.81
244		1		1		171.41		2.81		0
245		2		-1		171.41		2.81		2.81
246		2		-1		171.41		0		0
247		2		-1		168.6		2.81		0
248		2		-1		168.6		0		2.81
249		1		1		174.22		0		0
250		1		1		174.22		2.81		2.81
251		1		1		177.03		0		2.81
252		1		1		177.03		2.81		0
253		2		-1		177.03		2.81		2.81
254		2		-1		177.03		0		0
255		2		-1		174.22		2.81		0
256		2		-1		174.22		0		2.81
257		1		1		179.84		0		0
258		1		1		179.84		2.81		2.81
259		1		1		182.65		0		2.81
260		1		1		182.65		2.81		0
261		2		-1		182.65		2.81		2.81
262		2		-1		182.65		0		0
263		2		-1		179.84		2.81		0
264		2		-1		179.84		0		2.81
265		1		1		185.46		0		0
266		1		1		185.46		2.81		2.81
267		1		1		188.27		0		2.81
268		1		1		188.27		2.81		0
269		2		-1		188.27		2.81		2.81
270		2		-1		188.27		0		0
271		2		-1		185.46		2.81		0
272		2		-1		185.46		0		2.81
273		1		1		191.08		0		0
274		1		1		191.08		2.81		2.81
275		1		1		193.89		0		2.81
276		1		1		193.89		2.81		0
277		2		-1		193.89		2.81		2.81
278		2		-1		193.89		0		0
279		2		-1		191.08		2.81		0
280		2		-1		191.08		0		2.81
281		1		1		196.7		0		0
282		1		1		196.7		2.81		2.81
283		1		1		199.51		0		2.81
284		1		1		199.51		2.81		0
285		2		-1		199.51		2.81		2.81
286		2		-1		199.51		0		0
287		2		-1		196.7		2.81		0
288		2		-1		196.7		0		2.81
289		1		1		202.32		0		0
290		1		1		202.32		2.81		2.81
291		1		1		205.13		0		2.81
292		1		1		205.13		2.81		0
293		2		-1		205.13		2.81		2.81
294		2		-1		205.13		0		0
295		2		-1		202.32		2.81		0
296		2		-1		202.32		0		2.81
297		1		1		207.94		0		0
298		1		1		207.94		2.81		2.81
299		1		1		210.75		0		2.81
300		1		1		210.75		2.81		0
301		2		-1		210.75		2.81		2.81
302		2		-1		210.75		0		0
303		2		-1		207.94		2.81		0
304		2		-1		207.94		0		2.81
305		1		1		213.56		0		0
306		1		1		213.56		2.81		2.81
307		1		1		216.37		0		2.81
308		1		1		216.37		2.81		0
309		2		-1		216.37		2.81		2.81
310		2		-1		216.37		0		0
311		2		-1		213.56		2.81		0
312		2		-1		213.56		0		2.81
313		1		1		219.18		0		0
314		1		1		219.18		2.81		2.81
315		1		1		221.99		0		2.81
316		1		1		221.99		2.81		0
317		2		-1		221.99		2.81		2.81
318		2		-1		221.99		0		0
319		2		-1		219.18		2.81		0
320		2		-1		219.18		0		2.81
321		1		1		224.8		0		0
322		1		1		224.8		2.81		2.81
323		1		1		227.61		0		2.81
324		1		1		227.61		2.81		0
325		2		-1		227.61		2.81		2.81
326		2		-1		227.61		0		0
327		2		-1		224.8		2.81		0
328		2		-1		224.8		0		2.81
329		1		1		230.42		0		0
330		1		1		230.42		2.81		2.81
331		1		1		233.23		0		2.81
332		1		1		233.23		2.81		0
333		2		-1		233.23		2.81		2.81
334		2		-1		233.23		0		0
335		2		-1		230.42		2.81		0
336		2		-1		230.42		0		2.81
337		1		1		236.04		0		0
338		1		1		236.04		2.81		2.81
339		1		1		238.85		0		2.81
340		1		1		238.85		2.81		0
341		2		-1		238.85		2.81		2.81
342		2		-1		238.85		0		0
343		2		-1		236.04		2.81		0
344		2		-1		236.04		0		2.81
345		1		1		241.66		0		0
346		1		1		241.66		2.81		2.81
347		1		1		244.47		0		2.81
348		1		1		244.47		2.81		0
349		2		-1		244.47		2.81		2.81
350		2		-1		244.47		0		0
351		2		-1		241.66		2.81		0
352		2		-1		241.66		0		2.81
353		1		1		247.28		0		0
354		1		1		247.28		2.81		2.81
355		1		1		250.09		0		2.81
356		1		1		250.09		2.81		0
357		2		-1		250.09		2.81		2.81
358		2		-1		250.09		0		0
359		2		-1		247.28		2.81		0
360		2		-1		247.28		0		2.81
361		1		1		252.9		0		0
362		1		1		252.9		2.81		2.81
363		1		1		255.71		0		2.81
364		1		1		255.71		2.81		0
365		2		-1		255.71		2.81		2.81
366		2		-1		255.71		0		0
367		2		-1		252.9		2.81		0
368		2		-1		252.9		0		2.81
369		1		1		258.52		0		0
370		1		1		258.52		2.81		2.81
371		1		1		261.33		0		2.81
372		1		1		261.33		2.81		0
373		2		-1		261.33		2.81		2.81
374		2		-1		261.33		0		0
375		2		-1		258.52		2.81		0
376		2		-1		258.52		0		2.81
377		1		1		264.14		0		0
378		1		1		264.14		2.81		2.81
379		1		1		266.95		0		2.81
380		1		1		266.95		2.81		0
381		2		-1		266.95		2.81		2.81
382		2		-1		266.95		0		0
383		2		-1		264.14		2.81		0
384		2		-1		264.14		0		2.81
385		1		1		269.76		0		0
386		1		1		269.76		2.81		2.81
387		1		1		272.57		0		2.81
388		1		1		272.57		2.81		0
389		2		-1		272.57		2.81		2.81
390		2		-1		272.57		0		0
391		2		-1		269.76		2.81		0
392		2		-1		269.76		0		2.81
393		1		1		275.38		0		0
394		1		1		275.38		2.81		2.81
395		1		1		278.19		0		2.81
396		1		1		278.19		2.81		0
397		2		-1		278.19		2.81		2.81
398		2		-1		278.19		0		0
399		2		-1		275.38		2.81		0
400		2		-1		275.38		0		2.81
401		1		1		0		5.62		0
402		1		1		0		8.43		2.81
403		1		1		2.81		5.62		2.81
404		1		1		2.81		8.43		0
405		2		-1		2.81		8.43		2.81
406		2		-1		2.81		5.62		0
407		2		-1		0		8.43		0
408		2		-1		0		5.62		2.81
409		1		1		5.62		5.62		0
410		1		1		5.62		8.43		2.81
411		1		1		8.43		5.62		2.81
412		1		1		8.43		8.43		0
413		2		-1		8.43		8.43		2.81
414		2		-1		8.43		5.62		0
415		2		-1		5.62		8.43		0
416		2		-1		5.62		5.62		2.81
417		1		1		11.24		5.62		0
418		1		1		11.24		8.43		2.81
419		1		1		14.05		5.62		2.81
420		1		1		14.05		8.43		0
421		2		-1		14.05		8.43		2.81
422		2		-1		14.05		5.62		0
423		2		-1		11.24		8.43		0
424		2		-1		11.24		5.62		2.81
425		1		1		16.86		5.62		0
426		1		1		16.86		8.43		2.81
427		1		1		19.67		5.62		2.81
428		1		1		19.67		8.43		0
429		2		-1		19.67		8.43		2.81
430		2		-1		19.67		5.62		0
431		2		-1		16.86		8.43		0
432		2		-1		16.86		5.62		2.81
433		1		1		22.48		5.62		0
434		1		1		22.48		8.43		2.81
435		1		1		25.29		5.62		2.81
436		1		1		25.29		8.43		0
437		2		-1		25.29		8.43		2.81
438		2		-1		25.29		5.62		0
439		2		-1		22.48		8.43		0
440		2		-1		22.48		5.62		2.81
441		1		1		28.1		5.62		0
442		1		1		28.1		8.43		2.81
443		1		1		30.91		5.62		2.81
444		1		1		30.91		8.43		0
445		2		-1		30.91		8.43		2.81
446		2		-1		30.91		5.62		0
447		2		-1		28.1		8.43		0
448		2		-1		28.1		5.62		2.81
449		1		1		33.72		5.62		0
450		1		1		33.72		8.43		2.81
451		1		1		36.53		5.62		2.81
452		1		1		36.53		8.43		0
453		2		-1		36.53		8.43		2.81
454		2		-1		36.53		5.62		0
455		2		-1		33.72		8.43		0
456		2		-1		33.72		5.62		2.81
457		1		1		39.34		5.62		0
458		1		1		39.34		8.43		2.81
459		1		1		42.15		5.62		2.81
460		1		1		42.15		8.43		0
461		2		-1		42.15		8.43		2.81
462		2		-1		42.15		5.62		0
463		2		-1		39.34		8.43		0
464		2		-1		39.34		5.62		2.81
465		1		1		44.96		5.62		0
466		1		1		44.96		8.43		2.81
467		1		1		47.77		5.62		2.81
468		1		1		47.77		8.43		0
469		2		-1		47.77		8.43		2.81
470		2		-1		47.77		5.62		0
471		2		-1		44.96		8.43		0
472		2		-1		44.96		5.62		2.81
473		1		1		50.58		5.62		0
474		1		1		50.58		8.43		2.81
475		1		1		53.39		5.62		2.81
476		1		1		53.39		8.43		0
477		2		-1		53.39		8.43		2.81
478		2		-1		53.39		5.62		0
479		2		-1		50.58		8.43		0
480		2		-1		50.58		5.62		2.81
481		1		1		56.2		5.62		0
482		1		1		56.2		8.43		2.81
483		1		1		59.01		5.62		2.81
484		1		1		59.01		8.43		0
485		2		-1		59.01		8.43		2.81
486		2		-1		59.01		5.62		0
487		2		-1		56.2		8.43		0
488		2		-1		56.2		5.62		2.81
489		1		1		61.82		5.62		0
490		1		1		61.82		8.43		2.81
491		1		1		64.63		5.62		2.81
492		1		1		64.63		8.43		0
493		2		-1		64.63		8.43		2.81
494		2		-1		64.63		5.62		0
495		2		-1		61.82		8.43		0
496		2		-1		61.82		5.62		2.81
497		1		1		67.44		5.62		0
498		1		1		67.44		8.43		2.81
499		1		1		70.25		5.62		2.81
500		1		1		70.25		8.43		0
501		2		-1		70.25		8.43		2.81
502		2		-1		70.25		5.62		0
503		2		-1		67.44		8.43		0
504		2		-1		67.44		5.62		2.81
505		1		1		73.06		5.62		0
506		1		1		73.06		8.43		2.81
507		1		1		75.87		5.62		2.81
508		1		1		75.87		8.43		0
509		2		-1		75.87		8.43		2.81
510		2		-1		75.87		5.62		0
511		2		-1		73.06		8.43		0
512		2		-1		73.06		5.62		2.81
513		1		1		78.68		5.62		0
514		1		1		78.68		8.43		2.81
515		1		1		81.49		5.62		2.81
516		1		1		81.49		8.43		0
517		2		-1		81.49		8.43		2.81
518		2		-1		81.49		5.62		0
519		2		-1		78.68		8.43		0
520		2		-1		78.68		5.62		2.81
521		1		1		84.3		5.62		0
522		1		1		84.3		8.43		2.81
523		1		1		87.11		5.62		2.81
524		1		1		87.11		8.43		0
525		2		-1		87.11		8.43		2.81
526		2		-1		87.11		5.62		0
527		2		-1		84.3		8.43		0
528		2		-1		84.3		5.62		2.81
529		1		1		89.92		5.62		0
530		1		1		89.92		8.43		2.81
531		1		1		92.73		5.62		2.81
532		1		1		92.73		8.43		0
533		2		-1		92.73		8.43		2.81
534		2		-1		92.73		5.62		0
535		2		-1		89.92		8.43		0
536		2		-1		89.92		5.62		2.81
537		1		1		95.54		5.62		0
538		1		1		95.54		8.43		2.81
539		1		1		98.35		5.62		2.81
540		1		1		98.35		8.43		0
541		2		-1		98.35		8.43		2.81
542		2		-1		98.35		5.62		0
543		2		-1		95.54		8.43		0
544		2		-1		95.54		5.62		2.81
545		1		1		101.16		5.62		0
546		1		1		101.16		8.43		2.81
547		1		1		103.97		5.62		2.81
548		1		1		103.97		8.43		0
549		2		-1		103.97		8.43		2.81
550		2		-1		103.97		5.62		0
551		2		-1		101.16		8.43		0
552		2		-1		101.16		5.62		2.81
553		1		1		106.78		5.62		0
554		1		1		106.78		8.43		2.81
555		1		1		109.59		5.62		2.81
556		1		1		109.59		8.43		0
557		2		-1		109.59		8.43		2.81
558		2		-1		109.59		5.62		0
559		2		-1		106.78		8.43		0
560		2		-1		106.78		5.62		2.81
561		1		1		112.4		5.62		0
562		1		1		112.4		8.43		2.81
563		1		1		115.21		5.62		2.81
564		1		1		115.21		8.43		0
565		2		-1		115.21		8.43		2.81
566		2		-1		115.21		5.62		0
567		2		-1		112.4		8.43		0
568		2		-1		112.4		5.62		2.81
569		1		1		118.02		5.62		0
570		1		1		118.02		8.43		2.81
571		1		1		120.83		5.62		2.81
572		1		1		120.83		8.43		0
573		2		-1		120.83		8.43		2.81
574		2		-1		120.83		5.62		0
575		2		-1		118.02		8.43		0
576		2		-1		118.02		5.62		2.81
577		1		1		123.64		5.62		0
578		1		1		123.64		8.43		2.81
579		1		1		126.45		5.62		2.81
580		1		1		126.45		8.43		0
581		2		-1		126.45		8.43		2.81
582		2		-1		126.45		5.62		0
583		2		-1		123.64		8.43		0
584		2		-1		123.64		5.62		2.81
585		1		1		129.26		5.62		0
586		1		1		129.26		8.43		2.81
587		1		1		132.07		5.62		2.81
588		1		1		132.07		8.43		0
589		2		-1		132.07		8.43		2.81
590		2		-1		132.07		5.62		0
591		2		-1		129.26		8.43		0
592		2		-1		129.26		5.62		2.81
593		1		1		134.88		5.62		0
594		1		1		134.88		8.43		2.81
595		1		1		137.69		5.62		2.81
596		1		1		137.69		8.43		0
597		2		-1		137.69		8.43		2.81
598		2		-1		137.69		5.62		0
599		2		-1		134.88		8.43		0
600		2		-1		134.88		5.62		2.81
601		1		1		140.5		5.62		0
602		1		1		140.5		8.43		2.81
603		1		1		143.31		5.62		2.81
604		1		1		143.31		8.43		0
605		2		-1		143.31		8.43		2.81
606		2		-1		143.31		5.62		0
607		2		-1		140.5		8.43		0
608		2		-1		140.5		5.62		2.81
609		1		1		146.12		5.62		0
610		1		1		146.12		8.43		2.81
611		1		1		148.93		5.62		2.81
612		1		1		148.93		8.43		0
613		2		-1		148.93		8.43		2.81
614		2		-1		148.93		5.62		0
615		2		-1		146.12		8.43		0
616		2		-1		146.12		5.62		2.81
617		1		1		151.74		5.62		0
618		1		1		151.74		8.43		2.81
619		1		1		154.55		5.62		2.81
620		1		1		154.55		8.43		0
621		2		-1		154.55		8.43		2.81
622		2		-1		154.55		5.62		0
623		2		-1		151.74		8.43		0
624		2		-1		151.74		5.62		2.81
625		1		1		157.36		5.62		0
626		1		1		157.36		8.43		2.81
627		1		1		160.17		5.62		2.81
628		1		1		160.17		8.43		0
629		2		-1		160.17		8.43		2.81
630		2		-1		160.17		5.62		0
631		2		-1		157.36		8.43		0
632		2		-1		157.36		5.62		2.81
633		1		1		162.98		5.62		0
634		1		1		162.98		8.43		2.81
635		1		1		165.79		5.62		2.81
636		1		1		165.79		8.43		0
637		2		-1		165.79		8.43		2.81
638		2		-1		165.79		5.62		0
639		2		-1		162.98		8.43		0
640		2		-1		162.98		5.62		2.81
641		1		1		168.6		5.62		0
642		1		1		168.6		8.43		2.81
643		1		1		171.41		5.62		2.81
644		1		1		171.41		8.43		0
645		2		-1		171.41		8.43		2.81
646		2		-1		171.41		5.62		0
647		2		-1		168.6		8.43		0
648		2		-1		168.6		5.62		2.81
649		1		1		174.22		5.62		0
650		1		1		174.22		8.43		2.81
651		1		1		177.03		5.62		2.81
652		1		1		177.03		8.43		0
653		2		-1		177.03		8.43		2.81
654		2		-1		177.03		5.62		0
655		2		-1		174.22		8.43		0
656		2		-1		174.22		5.62		2.81
657		1		1		179.84		5.62		0
658		1		1		179.84		8.43		2.81
659		1		1		182.65		5.62		2.81
660		1		1		182.65		8.43		0
661		2		-1		182.65		8.43		2.81
662		2		-1		182.65		5.62		0
663		2		-1		179.84		8.43		0
664		2		-1		179.84		5.62		2.81
665		1		1		185.46		5.62		0
666		1		1		185.46		8.43		2.81
667		1		1		188.27		5.62		2.81
668		1		1		188.27		8.43		0
669		2		-1		188.27		8.43		2.81
670		2		-1		188.27		5.62		0
671		2		-1		185.46		8.43		0
672		2		-1		185.46		5.62		2.81
673		1		1		191.08		5.62		0
674		1		1		191.08		8.43		2.81
675		1		1		193.89		5.62		2.81
676		1		1		193.89		8.43		0
677		2		-1		193.89		8.43		2.81
678		2		-1		193.89		5.62		0
679		2		-1		191.08		8.43		0
680		2		-1		191.08		5.62		2.81
681		1		1		196.7		5.62		0
682		1		1		196.7		8.43		2.81
683		1		1		199.51		5.62		2.81
684		1		1		199.51		8.43		0
685		2		-1		199.51		8.43		2.81
686		2		-1		199.51		5.62		0
687		2		-1		196.7		8.43		0
688		2		-1		196.7		5.62		2.81
689		1		1		202.32		5.62		0
690		1		1		202.32		8.43		2.81
691		1		1		205.13		5.62		2.81
692		1		1		205.13		8.43		0
693		2		-1		205.13		8.43		2.81
694		2		-1		205.13		5.62		0
695		2		-1		202.32		8.43		0
696		2		-1		202.32		5.62		2.81
697		1		1		207.94		5.62		0
698		1		1		207.94		8.43		2.81
699		1		1		210.75		5.62		2.81
700		1		1		210.75		8.43		0
701		2		-1		210.75		8.43		2.81
702		2		-1		210.75		5.62		0
703		2		-1		207.94		8.43		0
704		2		-1		207.94		5.62		2.81
705		1		1		213.56		5.62		0
706		1		1		213.56		8.43		2.81
707		1		1		216.37		5.62		2.81
708		1		1		216.37		8.43		0
709		2		-1		216.37		8.43		2.81
710		2		-1		216.37		5.62		0
711		2		-1		213.56		8.43		0
712		2		-1		213.56		5.62		2.81
713		1		1		219.18		5.62		0
714		1		1		219.18		8.43		2.81
715		1		1		221.99		5.62		2.81
716		1		1		221.99		8.43		0
717		2		-1		221.99		8.43		2.81
718		2		-1		221.99		5.62		0
719		2		-1		219.18		8.43		0
720		2		-1		219.18		5.62		2.81
721		1		1		224.8		5.62		0
722		1		1		224.8		8.43		2.81
723		1		1		227.61		5.62		2.81
724		1		1		227.61		8.43		0
725		2		-1		227.61		8.43		2.81
726		2		-1		227.61		5.62		0
727		2		-1		224.8		8.43		0
728		2		-1		224.8		5.62		2.81
729		1		1		230.42		5.62		0
730		1		1		230.42		8.43		2.81
731		1		1		233.23		5.62		2.81
732		1		1		233.23		8.43		0
733		2		-1		233.23		8.43		2.81
734		2		-1		233.23		5.62		0
735		2		-1		230.42		8.43		0
736		2		-1		230.42		5.62		2.81
737		1		1		236.04		5.62		0
738		1		1		236.04		8.43		2.81
739		1		1		238.85		5.62		2.81
740		1		1		238.85		8.43		0
741		2		-1		238.85		8.43		2.81
742		2		-1		238.85		5.62		0
743		2		-1		236.04		8.43		0
744		2		-1		236.04		5.62		2.81
745		1		1		241.66		5.62		0
746		1		1		241.66		8.43		2.81
747		1		1		244.47		5.62		2.81
748		1		1		244.47		8.43		0
749		2		-1		244.47		8.43		2.81
750		2		-1		244.47		5.62		0
751		2		-1		241.66		8.43		0
752		2		-1		241.66		5.62		2.81
753		1		1		247.28		5.62		0
754		1		1		247.28		8.43		2.81
755		1		1		250.09		5.62		2.81
756		1		1		250.09		8.43		0
757		2		-1		250.09		8.43		2.81
758		2		-1		250.09		5.62		0
759		2		-1		247.28		8.43		0
760		2		-1		247.28		5.62		2.81
761		1		1		252.9		5.62		0
762		1		1		252.9		8.43		2.81
763		1		1		255.71		5.62		2.81
764		1		1		255.71		8.43		0
765		2		-1		255.71		8.43		2.81
766		2		-1		255.71		5.62		0
767		2		-1		252.9		8.43		0
768		2		-1		252.9		5.62		2.81
769		1		1		258.52		5.62		0
770		1		1		258.52		8.43		2.81
771		1		1		261.33		5.62		2.81
772		1		1		261.33		8.43		0
773		2		-1		261.33		8.43		2.81
774		2		-1		261.33		5.62		0
775		2		-1		258.52		8.43		0
776		2		-1		258.52		5.62		2.81
777		1		1		264.14		5.62		0
778		1		1		264.14		8.43		2.81
779		1		1		266.95		5.62		2.81
780		1		1		266.95		8.43		0
781		2		-1		266.95		8.43		2.81
782		2		-1		266.95		5.62		0
783		2		-1		264.14		8.43		0
784		2		-1		264.14		5.62		2.81
785		1		1		269.76		5.62		0
786		1		1		269.76		8.43		2.81
787		1		1		272.57		5.62		2.81
788		1		1		272.57		8.43		0
789		2		-1		272.57		8.43		2.81
790		2		-1		272.57		5.62		0
791		2		-1		269.76		8.43		0
792		2		-1		269.76		5.62		2.81
793		1		1		275.38		5.62		0
794		1		1		275.38		8.43		2.81
795		1		1		278.19		5.62		2.81
796		1		1		278.19		8.43		0
797		2		-1		278.19		8.43		2.81
798		2		-1		278.19		5.62		0
799		2		-1		275.38		8.43		0
800		2		-1		275.38		5.62		2.81
801		1		1		0		11.24		0
802		1		1		0		14.05		2.81
803		1		1		2.81		11.24		2.81
804		1		1		2.81		14.05		0
805		2		-1		2.81		14.05		2.81
806		2		-1		2.81		11.24		0
807		2		-1		0		14.05		0
808		2		-1		0		11.24		2.81
809		1		1		5.62		11.24		0
810		1		1		5.62		14.05		2.81
811		1		1		8.43		11.24		2.81
812		1		1		8.43		14.05		0
813		2		-1		8.43		14.05		2.81
814		2		-1		8.43		11.24		0
815		2		-1		5.62		14.05		0
816		2		-1		5.62		11.24		2.81
817		1		1		11.24		11.24		0
818		1		1		11.24		14.05		2.81
819		1		1		14.05		11.24		2.81
820		1		1		14.05		14.05		0
821		2		-1		14.05		14.05		2.81
822		2		-1		14.05		11.24		0
823		2		-1		11.24		14.05		0
824		2		-1		11.24		11.24		2.81
825		1		1		16.86		11.24		0
826		1		1		16.86		14.05		2.81
827		1		1		19.67		11.24		2.81
828		1		1		19.67		14.05		0
829		2		-1		19.67		14.05		2.81
830		2		-1		19.67		11.24		0
831		2		-1		16.86		14.05		0
832		2		-1		16.86		11.24		2.81
833		1		1		22.48		11.24		0
834		1		1		22.48		14.05		2.81
835		1		1		25.29		11.24		2.81
836		1		1		25.29		14.05		0
837		2		-1		25.29		14.05		2.81
838		2		-1		25.29		11.24		0
839		2		-1		22.48		14.05		0
840		2		-1		22.48		11.24		2.81
841		1		1		28.1		11.24		0
842		1		1		28.1		14.05		2.81
843		1		1		30.91		11.24		2.81
844		1		1		30.91		14.05		0
845		2		-1		30.91		14.05		2.81
846		2		-1		30.91		11.24		0
847		2		-1		28.1		14.05		0
848		2		-1		28.1		11.24		2.81
849		1		1		33.72		11.24		0
850		1		1		33.72		14.05		2.81
851		1		1		36.53		11.24		2.81
852		1		1		36.53		14.05		0
853		2		-1		36.53		14.05		2.81
854		2		-1		36.53		11.24		0
855		2		-1		33.72		14.05		0
856		2		-1		33.72		11.24		2.81
857		1		1		39.34		11.24		0
858		1		1		39.34		14.05		2.81
859		1		1		42.15		11.24		2.81
860		1		1		42.15		14.05		0
861		2		-1		42.15		14.05		2.81
862		2		-1		42.15		11.24		0
863		2		-1		39.34		14.05		0
864		2		-1		39.34		11.24		2.81
865		1		1		44.96		11.24		0
866		1		1		44.96		14.05		2.81
867		1		1		47.77		11.24		2.81
868		1		1		47.77		14.05		0
869		2		-1		47.77		14.05		2.81
870		2		-1		47.77		11.24		0
871		2		-1		44.96		14.05		0
872		2		-1		44.96		11.24		2.81
873		1		1		50.58		11.24		0
874		1		1		50.58		14.05		2.81
875		1		1		53.39		11.24		2.81
876		1		1		53.39		14.05		0
877		2		-1		53.39		14.05		2.81
878		2		-1		53.39		11.24		0
879		2		-1		50.58		14.05		0
880		2		-1		50.58		11.24		2.81
881		1		1		56.2		11.24		0
882		1		1		56.2		14.05		2.81
883		1		1		59.01		11.24		2.81
884		1		1		59.01		14.05		0
885		2		-1		59.01		14.05		2.81
886		2		-1		59.01		11.24		0
887		2		-1		56.2		14.05		0
888		2		-1		56.2		11.24		2.81
889		1		1		61.82		11.24		0
890		1		1		61.82		14.05		2.81
891		1		1		64.63		11.24		2.81
892		1		1		64.63		14.05		0
893		2		-1		64.63		14.05		2.81
894		2		-1		64.63		11.24		0
895		2		-1		61.82		14.05		0
896		2		-1		61.82		11.24		2.81
897		1		1		67.44		11.24		0
898		1		1		67.44		14.05		2.81
899		1		1		70.25		11.24		2.81
900		1		1		70.25		14.05		0
901		2		-1		70.25		14.05		2.81
902		2		-1		70.25		11.24		0
903		2		-1		67.44		14.05		0
904		2		-1		67.44		11.24		2.81
905		1		1		73.06		11.24		0
906		1		1		73.06		14.05		2.81
907		1		1		75.87		11.24		2.81
908		1		1		75.87		14.05		0
909		2		-1		75.87		14.05		2.81
910		2		-1		75.87		11.24		0
911		2		-1		73.06		14.05		0
912		2		-1		73.06		11.24		2.81
913		1		1		78.68		11.24		0
914		1		1		78.68		14.05		2.81
915		1		1		81.49		11.24		2.81
916		1		1		81.49		14.05		0
917		2		-1		81.49		14.05		2.81
918		2		-1		81.49		11.24		0
919		2		-1		78.68		14.05		0
920		2		-1		78.68		11.24		2.81
921		1		1		84.3		11.24		0
922		1		1		84.3		14.05		2.81
923		1		1		87.11		11.24		2.81
924		1		1		87.11		14.05		0
925		2		-1		87.11		14.05		2.81
926		2		-1		87.11		11.24		0
927		2		-1		84.3		14.05		0
928		2		-1		84.3		11.24		2.81
929		1		1		89.92		11.24		0
930		1		1		89.92		14.05		2.81
931		1		1		92.73		11.24		2.81
932		1		1		92.73		14.05		0
933		2		-1		92.73		14.05		2.81
934		2		-1		92.73		11.24		0
935		2		-1		89.92		14.05		0
936		2		-1		89.92		11.24		2.81
937		1		1		95.54		11.24		0
938		1		1		95.54		14.05		2.81
939		1		1		98.35		11.24		2.81
940		1		1		98.35		14.05		0
941		2		-1		98.35		14.05		2.81
942		2		-1		98.35		11.24		0
943		2		-1		95.54		14.05		0
944		2		-1		95.54		11.24		2.81
945		1		1		101.16		11.24		0
946		1		1		101.16		14.05		2.81
947		1		1		103.97		11.24		2.81
948		1		1		103.97		14.05		0
949		2		-1		103.97		14.05		2.81
950		2		-1		103.97		11.24		0
951		2		-1		101.16		14.05		0
952		2		-1		101.16		11.24		2.81
953		1		1		106.78		11.24		0
954		1		1		106.78		14.05		2.81
955		1		1		109.59		11.24		2.81
956		1		1		109.59		14.05		0
957		2		-1		109.59		14.05		2.81
958		2		-1		109.59		11.24		0
959		2		-1		106.78		14.05		0
960		2		-1		106.78		11.24		2.81
961		1		1		112.4		11.24		0
962		1		1		112.4		14.05		2.81
963		1		1		115.21		11.24		2.81
964		1		1		115.21		14.05		0
965		2		-1		115.21		14.05		2.81
966		2		-1		115.21		11.24		0
967		2		-1		112.4		14.05		0
968		2		-1		112.4		11.24		2.81
969		1		1		118.02		11.24		0
970		1		1		118.02		14.05		2.81
971		1		1		120.83		11.24		2.81
972		1		1		120.83		14.05		0
973		2		-1		120.83		14.05		2.81
974		2		-1		120.83		11.24		0
975		2		-1		118.02		14.05		0
976		2		-1		118.02		11.24		2.81
977		1		1		123.64		11.24		0
978		1		1		123.64		14.05		2.81
979		1		1		126.45		11.24		2.81
980		1		1		126.45		14.05		0
981		2		-1		126.45		14.05		2.81
982		2		-1		126.45		11.24		0
983		2		-1		123.64		14.05		0
984		2		-1		123.64		11.24		2.81
985		1		1		129.26		11.24		0
986		1		1		129.26		14.05		2.81
987		1		1		132.07		11.24		2.81
988		1		1		132.07		14.05		0
989		2		-1		132.07		14.05		2.81
990		2		-1		132.07		11.24		0
991		2		-1		129.26		14.05		0
992		2		-1		129.26		11.24		2.81
993		1		1		134.88		11.24		0
994		1		1		134.88		14.05		2.81
995		1		1		137.69		11.24		2.81
996		1		1		137.69		14.05		0
997		2		-1		137.69		14.05		2.81
998		2		-1		137.69		11.24		0
999		2		-1		134.88		14.05		0
1000		2		-1		134.88		11.24		2.81
1001		1		1		140.5		11.24		0
1002		1		1		140.5		14.05		2.81
1003		1		1		143.31		11.24		2.81
1004		1		1		143.31		14.05		0
1005		2		-1		143.31		14.05		2.81
1006		2		-1		143.31		11.24		0
1007		2		-1		140.5		14.05		0
1008		2		-1		140.5		11.24		2.81
1009		1		1		146.12		11.24		0
1010		1		1		146.12		14.05		2.81
1011		1		1		148.93		11.24		2.81
1012		1		1		148.93		14.05		0
1013		2		-1		148.93		14.05		2.81
1014		2		-1		148.93		11.24		0
1015		2		-1		146.12		14.05		0
1016		2		-1		146.12		11.24		2.81
1017		1		1		151.74		11.24		0
1018		1		1		151.74		14.05		2.81
1019		1		1		154.55		11.24		2.81
1020		1		1		154.55		14.05		0
1021		2		-1		154.55		14.05		2.81
1022		2		-1		154.55		11.24		0
1023		2		-1		151.74		14.05		0
1024		2		-1		151.74		11.24		2.81
1025		1		1		157.36		11.24		0
1026		1		1		157.36		14.05		2.81