LAMMPS data file via write_data, version 15 Apr 2020, timestep = 1200000

8973 atoms
5 atom types
5420 bonds
2 bond types
5458 angles
3 angle types
1780 impropers
1 improper types

-1.9375940000000000e+00 5.4259796999999999e+01 xlo xhi
-1.2187969999999999e+00 5.4978594000000001e+01 ylo yhi
-5.0000000000000000e-01 5.3305703999999999e+01 zlo zhi

Masses

1 6.94
2 14.0067
3 15.9994
4 28.086
5 15.9994

Atoms # full

8240 1 3 -6.5000000000000002e-01 1.2002445932900306e+01 5.7205218166078202e+00 5.1525108231804468e+00 0 1 1
2579 1 3 -6.5000000000000002e-01 9.7343518365636026e+00 9.8507882147456201e+00 3.9223009487747253e+00 0 0 0
8233 1 2 9.4999999999999996e-01 1.1652378792310499e+01 5.5269611159841778e+00 6.3066684133930577e+00 0 1 1
2570 1 2 9.4999999999999996e-01 9.7098976823063960e+00 8.6948334800744931e+00 3.4060830299658336e+00 0 0 0
2580 1 3 -6.5000000000000002e-01 1.0147183519583514e+01 7.5954263399727697e+00 3.1224422777733905e+00 0 0 0
5800 1 1 1.0000000000000000e+00 1.1178606063630623e+01 1.0704673155951397e+01 4.5380209043763058e+00 0 1 1
7454 1 2 9.4999999999999996e-01 1.5300231457117864e+01 3.4963056330479803e+00 1.4313382384290605e+00 0 0 1
2578 1 3 -6.5000000000000002e-01 1.0946165926497205e+01 8.7715991290803732e+00 3.7484044546263688e+00 0 0 0
1725 1 3 -6.5000000000000002e-01 1.5997264271249339e+01 9.6567134868394895e+00 2.3757813160461603e+00 0 0 0
7575 1 1 1.0000000000000000e+00 1.3700215151595064e+01 5.0386872412263211e+00 3.9922788851871513e+00 0 0 1
1715 1 2 9.4999999999999996e-01 1.6017794160313187e+01 9.2647876389476771e+00 1.2280576946217654e+00 0 0 0
1723 1 3 -6.5000000000000002e-01 1.4993558802991194e+01 1.0040191839710493e+01 1.2675929929584051e+00 0 0 0
7250 1 3 -6.5000000000000002e-01 1.5538784263972516e+01 6.9029621032647297e+00 2.8153993111851272e+00 1 1 1
7243 1 2 9.4999999999999996e-01 1.4402274409831502e+01 7.2561677609482782e+00 2.2307251364023335e+00 1 1 1
7249 1 3 -6.5000000000000002e-01 1.4068582362928039e+01 6.8629112863803439e+00 3.3901634819539925e+00 1 1 1
7251 1 3 -6.5000000000000002e-01 1.3151121601077849e+01 7.4398414077182169e+00 2.2562059733322792e+00 1 1 1
8239 1 3 -6.5000000000000002e-01 1.2031664467594386e+01 6.6853291301107296e+00 6.3888913936364489e+00 0 1 1
6733 1 2 9.4999999999999996e-01 1.2223971916076772e+01 3.6881565051384437e+00 1.5478821948740418e+00 0 1 1
6739 1 3 -6.5000000000000002e-01 1.2093663850527284e+01 4.3630106558033432e+00 2.5997655205487411e+00 0 1 1
6740 1 3 -6.5000000000000002e-01 1.2793439595534963e+01 2.9241658800929828e+00 2.3466569180761958e+00 0 1 1
7550 1 3 -6.5000000000000002e-01 1.6030099430056538e+01 6.6089946908760560e+00 7.2743671162092021e+00 1 0 1
7543 1 2 9.4999999999999996e-01 1.6030192608990777e+01 5.6700858543216430e+00 6.3768577491024931e+00 1 0 1
2266 1 1 1.0000000000000000e+00 1.2593309869728461e+01 7.9964888864829993e+00 4.4805010902206259e+00 0 0 0
7549 1 3 -6.5000000000000002e-01 1.5066698553401558e+01 6.3300477092539360e+00 5.9773185687639465e+00 1 0 1
7551 1 3 -6.5000000000000002e-01 1.5656965745121679e+01 5.0019268630448446e+00 5.3574021920656376e+00 1 0 1
45 1 3 -6.5000000000000002e-01 1.5686200839233940e+01 2.8542136596156792e-01 1.6101053147320559e+00 0 0 0
1996 1 1 1.0000000000000000e+00 1.1121596867498344e+01 6.2934156152458813e+00 2.2726564961190312e+00 0 0 0
5315 1 1 1.0000000000000000e+00 1.4006419709426652e+01 7.5613103694072690e+00 7.0391068493330229e+00 0 0 0
7412 1 3 -6.5000000000000002e-01 1.5065507256134724e+01 9.5054287853446855e+00 6.3850327227270371e+00 0 0 1
7411 1 3 -6.5000000000000002e-01 1.4156222244960375e+01 8.8546284664179158e+00 5.3133937110172340e+00 0 0 1
1724 1 3 -6.5000000000000002e-01 1.5566430672142834e+01 9.2807583016506374e+00 4.1815664283012088e-02 0 0 0
7406 1 2 9.4999999999999996e-01 1.4202060007679869e+01 1.0083295253737061e+01 5.6176249047992526e+00 0 0 1
7464 1 3 -6.5000000000000002e-01 1.5461290326238078e+01 4.1099349881995888e+00 2.5198504608535797e+00 0 0 1
7462 1 3 -6.5000000000000002e-01 1.6342588855452910e+01 4.0713045484363004e+00 1.1542660273600529e+00 0 0 1
8325 1 1 1.0000000000000000e+00 1.4050398662141376e+01 1.1214002725001812e+01 2.6840759000898204e+00 0 1 1
3917 1 1 1.0000000000000000e+00 1.2851924817563917e+01 1.8879080959729961e+00 4.0214287397086892e+00 0 1 0
6741 1 3 -6.5000000000000002e-01 1.1623135607932989e+01 4.7431479713410614e+00 1.2035544304192747e+00 0 1 1
43 1 3 -6.5000000000000002e-01 1.5224498485936344e+01 1.0479989696347281e+00 2.8972537672844707e+00 0 0 0
7413 1 3 -6.5000000000000002e-01 1.3339069550372940e+01 1.0005685897740211e+01 4.7547043994465064e+00 0 0 1
6085 1 1 1.0000000000000000e+00 1.5775433868645203e+01 7.5314934041819841e+00 4.5978427801735595e+00 0 0 0
1675 1 3 -6.5000000000000002e-01 1.4516035263426128e+01 2.2187262757924033e+00 5.1795689008744352e+00 0 0 0
3796 1 1 1.0000000000000000e+00 1.3734905031113449e+01 8.4757210819283724e-01 1.0884760834462748e+00 0 1 0
1676 1 3 -6.5000000000000002e-01 1.3301520614434864e+01 3.0698227795072950e+00 5.5546620472839097e+00 0 0 0
8241 1 3 -6.5000000000000002e-01 1.1509291070137946e+01 5.8110189440343607e+00 7.5646072352782294e+00 0 1 1
1669 1 2 9.4999999999999996e-01 1.4331489474430727e+01 2.9207451000058966e+00 6.2360338958460391e+00 0 0 0
1677 1 3 -6.5000000000000002e-01 1.5465524368992584e+01 2.4273026017183303e+00 6.3950078606775778e+00 0 0 0
2102 1 2 9.4999999999999996e-01 1.1870418453832476e+01 1.1789488965684786e+01 1.2532504909640112e+00 0 0 0
4197 1 1 1.0000000000000000e+00 1.5448105380704774e+01 6.6104694510251649e-01 5.1070274576470069e+00 0 1 0
2109 1 3 -6.5000000000000002e-01 1.2017771325292452e+01 1.1689622807140994e+01 2.5187829555211709e+00 0 0 0
7736 1 2 9.4999999999999996e-01 1.3257352421512270e+01 -9.2705226396017582e-01 6.4450715917135657e+00 0 0 1
2169 1 3 -6.5000000000000002e-01 1.0421395072496518e+01 9.6880809084288888e+00 6.9233670447752145e+00 0 0 0
2196 1 1 1.0000000000000000e+00 1.1935801792995646e+01 1.1209486285937253e+01 7.9488099397380720e+00 1 0 0
2162 1 2 9.4999999999999996e-01 9.4939940340865050e+00 1.0169688148165921e+01 7.5917546492912171e+00 0 0 0
3063 1 1 1.0000000000000000e+00 1.7103156345624011e+01 5.8315367983996236e+00 2.1332168274390297e+00 0 0 0
2588 1 3 -6.5000000000000002e-01 1.2556747885724590e+01 -4.2662773828340222e-01 2.3734530623569796e+00 0 1 0
7742 1 3 -6.5000000000000002e-01 1.3159396691115225e+01 -1.7336358247687395e-02 5.6016685282037972e+00 0 0 1
35 1 2 9.4999999999999996e-01 1.6357384397239162e+01 7.1398319755068629e-01 2.5424865797213361e+00 0 0 0
2108 1 3 -6.5000000000000002e-01 1.2274184999570213e+01 1.2055059081229116e+01 1.1670947999308762e-01 0 0 0
2107 1 3 -6.5000000000000002e-01 1.3041976296427492e+01 1.2217225612524683e+01 1.4299071713774638e+00 0 0 0
7463 1 3 -6.5000000000000002e-01 1.5480913263828521e+01 3.1356078300139512e+00 2.6983033585716243e-01 0 0 1
1173 1 1 1.0000000000000000e+00 1.6558835936794026e+01 3.3601262628650996e+00 4.1192119622710059e+00 0 1 0
44 1 3 -6.5000000000000002e-01 1.6566434427190654e+01 1.3054637194194529e+00 3.6290092528652398e+00 0 0 0
757 1 3 -6.5000000000000002e-01 1.5602936564933724e+01 1.1803156389553061e+01 4.2728299215679639e+00 0 0 0
1423 1 3 -6.5000000000000002e-01 1.1586593292573033e+01 1.2023440128898214e+01 6.2106469626177221e+00 0 1 0
203 1 3 -6.5000000000000002e-01 2.6056738108360356e+01 5.2010718841806947e+00 9.7523540493488869e-01 0 0 0
6262 1 3 -6.5000000000000002e-01 2.5809819823200890e+01 1.0380240497725511e+01 2.5061004895904220e+00 0 0 1
7677 1 1 1.0000000000000000e+00 1.6766934617917180e+01 1.9147432274843208e+00 7.7893154938428824e+00 0 0 0
1554 1 3 -6.5000000000000002e-01 1.3774488495637764e+01 3.8854412407485670e+00 8.6030699681300167e+00 0 0 0
7741 1 3 -6.5000000000000002e-01 1.4424960930798280e+01 -1.0526236736258470e+00 5.9219017890545365e+00 0 0 1
2598 1 1 1.0000000000000000e+00 1.1146108255829859e+01 7.8673595423170575e+00 8.2202458738735587e+00 0 0 0
2161 1 1 1.0000000000000000e+00 2.5289259339905612e+01 9.3327462791706939e+00 2.5976498166250622e+01 0 1 0
5365 1 3 -6.5000000000000002e-01 1.3823524139576618e+01 1.2017646292517000e+01 7.8714845884554148e+00 0 0 1
8644 1 3 -6.5000000000000002e-01 1.9001221213021228e+01 9.5566236849723953e+00 1.0582973434968342e-01 0 1 1
7558 1 2 9.4999999999999996e-01 1.7720129413827276e+01 6.4510424237552586e+00 -4.4307401967957305e-01 0 0 1
8778 1 3 -6.5000000000000002e-01 1.7284257459240486e+01 2.9420972468394146e-01 5.9561527180211211e+00 0 1 1
6600 1 1 1.0000000000000000e+00 1.6939602643486293e+01 1.0579367196906979e+01 4.1835896194484343e+00 0 0 0
6910 1 1 1.0000000000000000e+00 1.7172220796240602e+01 9.6520847031319779e+00 7.4078044322919485e+00 0 1 1
3872 1 1 1.0000000000000000e+00 2.2359156669559834e+01 -5.2279611057015091e-02 5.4060900858768397e+00 0 0 0
595 1 3 -6.5000000000000002e-01 1.9522406012548306e+01 2.3309960144682345e+00 8.7356332108150789e-02 1 0 0
7566 1 3 -6.5000000000000002e-01 1.7823613945291036e+01 6.9888593054542456e+00 6.7666722140665725e-01 0 0 1
2734 1 2 9.4999999999999996e-01 2.3255454593298580e+01 9.9371555185580451e+00 2.1177637752871523e-01 0 1 0
7564 1 3 -6.5000000000000002e-01 1.8077518388466075e+01 5.4696088384793713e+00 3.0120014027153991e-01 0 0 1
4375 1 3 -6.5000000000000002e-01 1.8147472817449881e+01 4.0278138487398705e+00 4.8624451028436795e+00 0 1 0
6078 1 3 -6.5000000000000002e-01 1.8242353508627513e+01 8.4922552806144136e+00 6.0822843063493126e+00 0 0 1
8646 1 3 -6.5000000000000002e-01 1.9657022664446405e+01 9.4268377227627003e+00 1.5214878517245889e+00 0 1 1
1267 1 3 -6.5000000000000002e-01 2.4922514429223813e+01 -3.0673320782411040e-01 3.2966074588672645e+00 0 1 0
1538 1 3 -6.5000000000000002e-01 1.8708595673637525e+01 1.1341521234594202e+01 3.4889925720390802e+00 0 0 0
5772 1 1 1.0000000000000000e+00 1.9220980626826773e+01 3.8131566007112201e+00 1.6074039319572524e+00 0 1 1
1532 1 2 9.4999999999999996e-01 1.9938815126207881e+01 1.1201834959683836e+01 3.8457034522461768e+00 0 0 0
1071 1 1 1.0000000000000000e+00 1.9581987335299104e+01 7.5090263671715727e+00 1.8971143024324257e+00 0 1 0
1348 1 3 -6.5000000000000002e-01 1.8964792622452283e+01 2.7760595161737873e+00 7.4989860635955736e+00 1 1 0
1340 1 2 9.4999999999999996e-01 1.8607584892080236e+01 3.9871395707133592e+00 7.5867406324937567e+00 1 1 0
6076 1 3 -6.5000000000000002e-01 1.7441566344200886e+01 8.2831288937299750e+00 4.8016243764804827e+00 0 0 1
8638 1 2 9.4999999999999996e-01 1.8899410579324787e+01 1.0320288626937236e+01 1.1289607364445999e+00 0 1 1
6077 1 3 -6.5000000000000002e-01 1.8640594794775851e+01 7.9215328752929688e+00 3.7149966057285075e+00 0 0 1
1350 1 3 -6.5000000000000002e-01 1.9792299492222291e+01 4.0482880664734386e+00 7.1234018931091319e+00 1 1 0
6071 1 2 9.4999999999999996e-01 1.8705658283985663e+01 8.1478550514358030e+00 4.9552475363404120e+00 0 0 1
597 1 3 -6.5000000000000002e-01 1.8452856083058119e+01 2.0442134379562149e+00 1.0467326307438363e+00 1 0 0
1577 1 2 9.4999999999999996e-01 2.1763649821874779e+01 8.8959284170702304e+00 2.7976499466813989e+00 0 0 0
1583 1 3 -6.5000000000000002e-01 2.1540185519884016e+01 7.5843066141951310e+00 2.9331797290661012e+00 0 0 0
589 1 2 9.4999999999999996e-01 1.9330198322917031e+01 1.2455359450390413e+00 6.8087761362720856e-01 1 0 0
10 1 3 -6.5000000000000002e-01 2.2088062186483601e+01 5.3773435773266085e+00 4.5029043679413547e+00 0 0 0
2950 1 3 -6.5000000000000002e-01 2.2859581707317012e+01 4.9620591551597863e+00 1.1458082144011092e-01 0 1 0
2944 1 2 9.4999999999999996e-01 2.3430244918475356e+01 4.3847914593680208e+00 1.0264640441234913e+00 0 1 0
4894 1 3 -6.5000000000000002e-01 2.2311772246617132e+01 2.5947872399571787e+00 2.3035082958416204e+00 0 0 0
4888 1 2 9.4999999999999996e-01 2.1369267080341480e+01 2.2207934709517154e+00 3.0886572231877349e+00 0 0 0
4893 1 3 -6.5000000000000002e-01 2.0854229804521744e+01 2.9801601116469416e+00 2.1928798589286411e+00 0 0 0
4895 1 3 -6.5000000000000002e-01 2.2385722683660614e+01 1.7261237138138661e+00 3.6493828677120592e+00 0 0 0
4376 1 3 -6.5000000000000002e-01 1.9327568503778231e+01 5.1834988269589815e+00 3.0635617735924283e+00 0 1 0
4457 1 1 1.0000000000000000e+00 2.2793344888538993e+01 7.1972303934021600e+00 2.5758904646259412e-01 0 1 0
7860 1 1 1.0000000000000000e+00 2.4233880577470572e+01 1.5876636243060838e+00 2.9351830874548397e+00 0 0 1
2952 1 3 -6.5000000000000002e-01 2.3045786962393223e+01 5.4441954282003611e+00 1.5892011741047727e+00 0 1 0
7609 1 3 -6.5000000000000002e-01 2.4737468477262237e+01 5.9275000024557505e+00 4.5388353916453106e+00 0 0 1
4374 1 3 -6.5000000000000002e-01 1.8002663670674018e+01 4.3107226666803236e+00 3.3480244316578545e+00 0 1 0
4366 1 2 9.4999999999999996e-01 1.8933276608679268e+01 4.6869149185352406e+00 4.1297778981206497e+00 0 1 0
7603 1 2 9.4999999999999996e-01 2.5258595459421368e+01 5.9974854261660253e+00 3.3538144642237309e+00 0 0 1
7610 1 3 -6.5000000000000002e-01 2.4825730005512590e+01 7.1572575976295969e+00 3.5901635668455594e+00 0 0 1
8665 1 1 1.0000000000000000e+00 2.3028949104696661e+01 6.9818061007902088e+00 4.3874329414511442e+00 0 1 0
6882 1 1 1.0000000000000000e+00 2.1449060820602362e+01 5.4445943731321762e+00 2.6897836435003581e+00 0 1 1
1685 1 2 9.4999999999999996e-01 2.5696585013594266e+01 1.5698010877961017e+00 1.3325127937441267e-01 0 0 0
7573 1 2 9.4999999999999996e-01 2.1043405973362461e+01 9.6820100835775236e+00 7.5274408687414320e+00 0 0 1
7580 1 3 -6.5000000000000002e-01 2.2107302059684159e+01 1.0070619895443535e+01 6.9405450981378802e+00 0 0 1
2148 1 1 1.0000000000000000e+00 2.2894532784862843e+01 1.0564489604916609e+01 5.0713859119799833e+00 0 0 0
2705 1 2 9.4999999999999996e-01 2.5374196617630574e+01 1.1160725443383171e+01 5.2774096961326160e+00 0 0 0
7332 1 1 1.0000000000000000e+00 2.4403000078955568e+01 9.2712609788355778e+00 2.5676198685233311e+00 0 1 0
2713 1 3 -6.5000000000000002e-01 2.4388571910415283e+01 1.1255572458337065e+01 6.0665757549775208e+00 0 0 0
1582 1 3 -6.5000000000000002e-01 2.2675585073306287e+01 8.5830458282955036e+00 3.5588958562225015e+00 0 0 0
2715 1 3 -6.5000000000000002e-01 2.4671303030252769e+01 1.0175013229334143e+01 4.9749996242512013e+00 0 0 0
4243 1 2 9.4999999999999996e-01 2.2633523953359482e+01 4.0239929277545466e-01 6.1475942875240430e-01 0 1 1
1584 1 3 -6.5000000000000002e-01 2.2373703849816174e+01 1.0027478826112770e+01 3.0320146803963226e+00 0 0 0
7488 1 3 -6.5000000000000002e-01 2.0539093891092197e+01 5.5538575272635571e+00 9.2802058784005614e-01 0 0 1
12 1 3 -6.5000000000000002e-01 2.0962295807790273e+01 6.2992560844017111e+00 5.3920903068564847e+00 0 0 0
4 1 2 9.4999999999999996e-01 2.1445786644079220e+01 5.1382508357166135e+00 5.5472549522409347e+00 0 0 0
11 1 3 -6.5000000000000002e-01 2.2096185449918455e+01 4.0619771696249636e+00 5.2842844180725699e+00 0 0 0
2626 1 1 1.0000000000000000e+00 2.4050252195415233e+01 3.7601656221377135e+00 4.7750446960170603e+00 0 1 0
46 1 1 1.0000000000000000e+00 2.0561952053867870e+01 2.2883709722080900e+00 6.6525617972746218e+00 0 0 0
462 1 3 -6.5000000000000002e-01 2.3431832455584093e+01 7.6457771236148062e+00 6.2295817188661831e+00 0 0 0
3084 1 3 -6.5000000000000002e-01 2.0110733324728404e+01 6.2865555490888003e-01 5.1707624228042448e+00 0 0 0
6860 1 3 -6.5000000000000002e-01 2.2868669947523266e+01 1.0083608683111835e-01 7.2912767347374841e+00 0 1 1
6853 1 2 9.4999999999999996e-01 2.3083744272672810e+01 1.3009579784196059e+00 7.6699997895992995e+00 0 1 1
454 1 2 9.4999999999999996e-01 2.3513591153832447e+01 7.4923378884075742e+00 7.4601695167116793e+00 0 0 0
7486 1 3 -6.5000000000000002e-01 2.0630535773439114e+01 6.9870926248509848e+00 2.8153943697982403e-01 0 0 1
8175 1 1 1.0000000000000000e+00 2.1835232975240626e+01 2.8918453730174467e+00 -2.9331387011474200e-02 0 0 1
7635 1 1 1.0000000000000000e+00 2.5313922097979301e+01 8.1761142429223028e+00 5.1739397146311630e+00 0 0 1
447 1 3 -6.5000000000000002e-01 1.8263498114421747e+01 1.1035070704187101e+01 6.4017650229363081e+00 1 0 0
2741 1 3 -6.5000000000000002e-01 2.4421789533010294e+01 1.0369000306311138e+01 3.2852360582965451e-01 0 1 0
3077 1 2 9.4999999999999996e-01 1.9437311859890684e+01 1.8930671945174271e-01 4.1663216673307293e+00 0 0 0
4248 1 3 -6.5000000000000002e-01 2.3459604745288416e+01 -5.2104727799371975e-01 3.2402794169193611e-01 0 1 1
460 1 3 -6.5000000000000002e-01 2.4477203105665104e+01 8.2822477007980577e+00 7.2462872767119180e+00 0 0 0
2951 1 3 -6.5000000000000002e-01 2.3555866614657152e+01 3.6180479340530152e+00 4.5321161978004433e-02 0 1 0
8771 1 2 9.4999999999999996e-01 1.8167989533771234e+01 -7.9080083828784398e-02 6.7285883359288823e+00 0 1 1
7611 1 3 -6.5000000000000002e-01 2.5461893082658225e+01 4.7979691931826185e+00 3.6904399976727258e+00 0 0 1
1694 1 3 -6.5000000000000002e-01 2.5443279024832403e+01 1.6622254267010532e+00 1.3840921882281709e+00 0 0 0
6669 1 3 -6.5000000000000002e-01 2.5018367420562509e+01 2.1662507468043186e+00 4.5339497341699948e+00 0 0 0
6667 1 3 -6.5000000000000002e-01 2.5529025247870678e+01 2.9550279347759720e+00 5.8165835376445205e+00 0 0 0
6732 1 1 1.0000000000000000e+00 2.5566235827536573e+01 3.6415339154265225e+00 7.5432701140503644e+00 0 1 1
6859 1 3 -6.5000000000000002e-01 2.2179473246876395e+01 1.3668242742316732e+00 6.8191050893416607e+00 0 1 1
8777 1 3 -6.5000000000000002e-01 1.8598173012237478e+01 -4.8871230621126127e-01 7.8420655987686549e+00 0 1 1
1262 1 2 9.4999999999999996e-01 2.5304766930699227e+01 -6.6293262360673477e-01 4.4486753178288323e+00 0 1 0
1539 1 3 -6.5000000000000002e-01 2.1033387303814528e+01 1.1543152611018511e+01 4.4368690257628964e+00 0 0 0
2740 1 3 -6.5000000000000002e-01 2.3906313925813254e+01 8.8699795093161153e+00 4.9442752673121920e-01 0 1 0
8772 1 1 1.0000000000000000e+00 2.4016284603040731e+01 1.0102840911941005e+01 7.8016877836532315e+00 0 1 1
4250 1 3 -6.5000000000000002e-01 2.2499252762146366e+01 -3.5319942385197789e-01 1.6198445750017181e+00 0 1 1
1349 1 3 -6.5000000000000002e-01 1.7571222457916910e+01 3.4457643181739499e+00 8.0057721183420831e+00 1 1 0
8776 1 3 -6.5000000000000002e-01 1.7124410393321313e+01 -2.6510492768162092e-01 7.4190082518685108e+00 0 1 1
7579 1 3 -6.5000000000000002e-01 2.1880255601604301e+01 9.6455227182810699e+00 8.4929872132012338e+00 0 0 1
2742 1 3 -6.5000000000000002e-01 2.2288417244292798e+01 9.0892221624398708e+00 1.9847474506471491e-01 0 1 0
596 1 3 -6.5000000000000002e-01 2.0330652919006020e+01 9.4732242449146886e-01 1.4998280649547306e-02 1 0 0
8645 1 3 -6.5000000000000002e-01 1.8233389805784569e+01 1.0962258299788688e+01 2.9525963285274520e-01 0 1 1
7492 1 3 -6.5000000000000002e-01 2.5999741953680694e+01 -8.7543715932266530e-01 1.6300110779970925e+01 0 0 0
445 1 3 -6.5000000000000002e-01 1.8467211612090473e+01 1.1897037773610784e+01 7.8055684289673941e+00 1 0 0
439 1 2 9.4999999999999996e-01 1.8322148722472388e+01 1.2308289673353871e+01 6.5952307891743374e+00 1 0 0
7705 1 1 1.0000000000000000e+00 2.5411545550924068e+01 1.2051780382175281e+01 1.1546891175260972e+00 0 0 0
1537 1 3 -6.5000000000000002e-01 1.9610974027882556e+01 1.2304411824514249e+01 4.3473471243008097e+00 0 0 0
6861 1 3 -6.5000000000000002e-01 2.2737306947806768e+01 2.4802347981275168e+00 7.7486778892911907e+00 0 1 1
3082 1 3 -6.5000000000000002e-01 2.0546443573075813e+01 -3.5951876789620207e-01 4.0074776260625091e+00 0 0 0
3083 1 3 -6.5000000000000002e-01 1.9158074933658938e+01 -4.0886484403946344e-01 3.1451894451038829e+00 0 0 0
5782 1 3 -6.5000000000000002e-01 1.6090942028735185e+01 4.4240798189215438e+00 2.6273125622543699e+01 0 1 0
2649 1 3 -6.5000000000000002e-01 2.4500289332368133e+01 3.7384429713036891e+00 2.5725277054830759e+01 0 1 0
4249 1 3 -6.5000000000000002e-01 2.3063686795258754e+01 8.6278194683998011e-01 -4.8737497236736976e-01 0 1 1
3367 1 3 -6.5000000000000002e-01 2.2497695620358165e+01 -1.0422159922125418e+00 1.3962125713178454e+01 0 0 0
8520 1 1 1.0000000000000000e+00 1.7141094775245218e+01 6.2316843742762495e+00 9.0553870586369190e+00 0 0 1
2714 1 3 -6.5000000000000002e-01 2.5721823227423055e+01 1.2200282212311162e+01 5.9311210602447950e+00 0 0 0
3779 1 3 -6.5000000000000002e-01 1.7567099426864022e+01 1.2734426948732999e+01 2.2626689755767377e+01 0 0 0
4808 1 3 -6.5000000000000002e-01 2.5968988398609284e+01 1.1230086523450197e+01 2.5077148052300537e+01 0 0 0
2276 1 3 -6.5000000000000002e-01 2.4078504219499500e+01 1.2680552362494746e+01 1.2480960712408722e+01 0 0 0
1268 1 3 -6.5000000000000002e-01 2.4151497605631302e+01 -3.4746654824337153e-01 4.6967306230123755e+00 0 1 0
8328 1 3 -6.5000000000000002e-01 1.4900306702262071e+01 1.1197185828444978e+01 2.6373713319055465e+01 0 0 0
1861 1 1 1.0000000000000000e+00 1.7467103956017290e+01 3.4956884120060581e+00 -4.7807856533782556e-01 0 1 0
7481 1 2 9.4999999999999996e-01 2.0330389747115685e+01 5.8599445224260407e+00 -2.6845107802744600e-01 0 0 1
155 1 2 9.4999999999999996e-01 6.4327165821791850e+00 1.1771786937764405e+01 1.5785504808615435e+01 0 0 0
165 1 3 -6.5000000000000002e-01 5.3541107623129713e+00 1.1746262561361535e+01 1.5170001121396513e+01 0 0 0
894 1 3 -6.5000000000000002e-01 6.7192671679955422e+00 1.1157569891893688e+01 1.2205193004316763e+01 1 0 0
2356 1 1 1.0000000000000000e+00 6.3277782490485626e+00 1.2802254103019772e+01 1.2949386637007731e+01 1 0 0
3071 1 3 -6.5000000000000002e-01 5.7710281267895693e+00 1.2504757875376219e+01 9.1788680002389071e+00 0 0 0
6392 1 3 -6.5000000000000002e-01 4.1783073242092570e+00 1.2289721979549237e+01 1.2752302019921627e+01 0 0 0
4347 1 1 1.0000000000000000e+00 6.5675370730005938e+00 1.1026948680630829e+01 1.0159769118743116e+01 0 0 0
164 1 3 -6.5000000000000002e-01 7.6361597854045193e+00 1.1934387936101997e+01 1.5963572360540125e+01 0 0 0
163 1 3 -6.5000000000000002e-01 6.8866264120914815e+00 1.2091965412132627e+01 1.4691671580173686e+01 0 0 0
3176 1 3 -6.5000000000000002e-01 1.2895020869306306e+01 9.2039037967197270e+00 8.3175194552051952e+00 0 0 0
2168 1 3 -6.5000000000000002e-01 8.8889417354237708e+00 1.0575182064074321e+01 8.6867258624015466e+00 0 0 0
2436 1 1 1.0000000000000000e+00 1.4890966577805967e+01 1.2279245415474270e+01 9.7191235527531372e+00 0 0 0
1547 1 2 9.4999999999999996e-01 1.4871016575955434e+01 4.4674279290739323e+00 8.8497195860750910e+00 0 0 0
4490 1 3 -6.5000000000000002e-01 1.0913428182920018e+01 1.2074957718835650e+01 1.0855149388910901e+01 0 0 0
8865 1 1 1.0000000000000000e+00 1.5948761793515686e+01 -8.9519813911059021e-01 1.5764488765717267e+01 0 1 1
2167 1 3 -6.5000000000000002e-01 1.0335655567941764e+01 1.0028784273669332e+01 8.4762210424438482e+00 0 0 0
3850 1 3 -6.5000000000000002e-01 1.5606472160190583e+01 2.0808838688054538e+00 9.3228883216136698e+00 1 0 0
887 1 2 9.4999999999999996e-01 7.5914055978561015e+00 1.0304420276063315e+01 1.2580599442433620e+01 1 0 0
892 1 3 -6.5000000000000002e-01 7.8276913245598232e+00 1.0491192268017098e+01 1.1381722212376658e+01 1 0 0
5445 1 1 1.0000000000000000e+00 1.2103106592393758e+01 5.0316212216080025e+00 9.2661367914334729e+00 0 1 1
3177 1 3 -6.5000000000000002e-01 1.3652767951733173e+01 8.5986989809886047e+00 1.0555790020388383e+01 0 0 0
893 1 3 -6.5000000000000002e-01 8.5583575563946983e+00 9.5265148852298420e+00 1.2429624635997742e+01 1 0 0
7338 1 3 -6.5000000000000002e-01 1.0805876751379786e+01 8.2973013508273272e+00 1.0149811827751643e+01 0 1 1
7608 1 3 -6.5000000000000002e-01 1.2595227383141731e+01 2.0815712818257412e+00 1.1467941497322984e+01 0 0 1
3496 1 1 1.0000000000000000e+00 1.4130343658141557e+01 6.6814769099856548e+00 1.0725642530970109e+01 0 0 0
7601 1 2 9.4999999999999996e-01 1.1764896484833510e+01 2.6482403346018235e+00 1.0758946470387485e+01 0 0 1
1132 1 3 -6.5000000000000002e-01 1.2511292435722369e+01 9.9485829099692520e+00 1.4064765369063050e+01 0 1 0
3175 1 3 -6.5000000000000002e-01 1.3378652265608087e+01 7.9461242898015447e+00 9.2991866817004354e+00 0 0 0
3169 1 2 9.4999999999999996e-01 1.3277392346827387e+01 9.1957431776146148e+00 9.5243134150706776e+00 0 0 0
7381 1 3 -6.5000000000000002e-01 1.3568433150701855e+01 1.3017119182246237e-01 1.3756596195333438e+01 0 1 0
4017 1 1 1.0000000000000000e+00 1.0551293470420077e+01 4.6911840390621480e+00 1.1962457750203678e+01 -1 1 1
7607 1 3 -6.5000000000000002e-01 1.1080246301149595e+01 3.5547941486721752e+00 1.0254334061944563e+01 0 0 1
7331 1 2 9.4999999999999996e-01 1.1336312466118876e+01 7.4728322793945692e+00 1.0935794693947786e+01 0 1 1
7606 1 3 -6.5000000000000002e-01 1.2216450815971156e+01 3.5732955809631046e+00 1.1347135031058835e+01 0 0 1
7337 1 3 -6.5000000000000002e-01 1.1818736222186157e+01 6.3307232022895201e+00 1.1266730010021867e+01 0 1 1
7336 1 3 -6.5000000000000002e-01 1.1061580783903075e+01 6.7669905848240388e+00 9.9061142566335896e+00 0 1 1
4252 1 3 -6.5000000000000002e-01 1.4166681167625239e+01 5.4634320628945936e+00 1.2340205341885499e+01 0 1 0
4245 1 2 9.4999999999999996e-01 1.4442772361498314e+01 5.9247306785291585e+00 1.3500434715630240e+01 0 1 0
4205 1 3 -6.5000000000000002e-01 9.5121962230045671e+00 3.3496204418463709e+00 1.3079681056278897e+01 0 1 0
4198 1 2 9.4999999999999996e-01 9.6073255000139977e+00 2.5262078649101132e+00 1.3979385479315313e+01 0 1 0
7105 1 1 1.0000000000000000e+00 1.2566494753128699e+01 1.8899366301799376e+00 1.3631832643696859e+01 -1 1 1
4204 1 3 -6.5000000000000002e-01 1.0104676215519365e+01 1.8444185586858808e+00 1.4844746831298531e+01 0 1 0
2923 1 3 -6.5000000000000002e-01 1.5625602573333463e+01 3.1410959684560487e+00 1.2270714723200498e+01 0 1 0
2915 1 2 9.4999999999999996e-01 1.5893856562261323e+01 3.0856297732001901e+00 1.3511635742802133e+01 0 1 0
5090 1 2 9.4999999999999996e-01 1.5985132354248561e+01 1.1013084128136457e+01 1.3077543783663952e+01 0 0 0
1133 1 3 -6.5000000000000002e-01 1.1846563129139918e+01 9.5604315435237588e+00 1.2661331472422136e+01 0 1 0
4251 1 3 -6.5000000000000002e-01 1.4677042985913289e+01 6.9219099235421178e+00 1.2737833893070270e+01 0 1 0
4253 1 3 -6.5000000000000002e-01 1.4802336279573097e+01 6.8135212303829302e+00 1.4225682464953506e+01 0 1 0
5755 1 1 1.0000000000000000e+00 1.4219738733223261e+01 3.7794798634679174e+00 1.1376304846910413e+01 -1 1 0
4203 1 3 -6.5000000000000002e-01 1.0775062600103624e+01 2.9858255946601950e+00 1.3957698212150872e+01 0 1 0
5096 1 3 -6.5000000000000002e-01 1.5887514508741482e+01 9.8573928898934877e+00 1.2537979750274125e+01 0 0 0
2925 1 3 -6.5000000000000002e-01 1.4620493777511227e+01 3.0606895154988703e+00 1.3478594629124524e+01 0 1 0
2581 1 1 1.0000000000000000e+00 1.3743357749718939e+01 9.2707941395383955e+00 1.2787438028108847e+01 0 1 0
1127 1 2 9.4999999999999996e-01 1.1306272683464034e+01 9.8629601909554712e+00 1.3729577508137289e+01 0 1 0
5095 1 3 -6.5000000000000002e-01 1.5327124270552002e+01 1.0338567608582085e+01 1.3941787209811928e+01 0 0 0
771 1 1 1.0000000000000000e+00 1.3632357945256508e+01 1.1542635952933171e+01 1.4693938062690236e+01 0 1 0
1134 1 3 -6.5000000000000002e-01 1.1281415782837358e+01 1.0222650768055283e+01 1.4904888135831285e+01 0 1 0
440 1 2 9.4999999999999996e-01 1.1545931194968336e+01 6.8920224886397534e+00 1.4599202755307925e+01 1 0 0
3325 1 3 -6.5000000000000002e-01 1.4182401187185462e+01 1.0129188987758592e+01 1.6635685062266859e+01 0 0 0
3091 1 1 1.0000000000000000e+00 9.6846358379653417e+00 1.0078230026808242e+01 1.0487845721836718e+01 1 0 0
449 1 3 -6.5000000000000002e-01 1.1746485741143038e+01 7.5349247033747169e+00 1.5664202061507943e+01 1 0 0
5325 1 1 1.0000000000000000e+00 1.0769829265972113e+01 4.4723507028859650e+00 1.5108664822172395e+01 0 1 0
450 1 3 -6.5000000000000002e-01 1.1276384138821879e+01 5.8722155342329909e+00 1.3950910543978400e+01 1 0 0
33 1 1 1.0000000000000000e+00 1.5077609473773874e+01 -6.3666517223871455e-01 1.2508313736989077e+01 0 0 -1
1552 1 3 -6.5000000000000002e-01 1.4120678909319640e+01 4.9943448593726805e+00 9.7410797243329394e+00 0 0 0
1553 1 3 -6.5000000000000002e-01 1.5642099796317257e+01 5.2870566222629050e+00 9.4816647591137251e+00 0 0 0
3841 1 2 9.4999999999999996e-01 1.5156958893786591e+01 1.1051304885477726e+00 9.9886779336193250e+00 1 0 0
448 1 3 -6.5000000000000002e-01 1.1554016729745783e+01 5.9860931063726497e+00 1.5507524216315899e+01 1 0 0
3849 1 3 -6.5000000000000002e-01 1.6384202844507922e+01 9.9631043676023556e-01 1.0231014697188508e+01 1 0 0
4488 1 3 -6.5000000000000002e-01 1.2101864818716679e+01 1.1987617180300793e+01 9.8078248578717240e+00 0 0 0
4483 1 2 9.4999999999999996e-01 1.2131828833750737e+01 1.1715464578642313e+01 1.1054372325688783e+01 0 0 0
902 1 2 9.4999999999999996e-01 1.6707991486400381e+01 9.1041791885024423e+00 1.0289876231764207e+01 0 0 0
444 1 3 -6.5000000000000002e-01 1.5872512199129453e+01 6.2984385615403919e+00 1.6760758566140026e+01 1 0 0
3066 1 1 1.0000000000000000e+00 1.1845869089524841e+01 9.3351259651910841e+00 1.6448910180733893e+01 0 0 0
961 1 1 1.0000000000000000e+00 9.3229302897675588e+00 1.0938164363627665e+01 1.5982051397655891e+01 0 0 0
442 1 3 -6.5000000000000002e-01 1.6639144061259795e+01 4.9391790392357438e+00 1.6812198059176897e+01 1 0 0
424 1 2 9.4999999999999996e-01 1.4502831611399348e+01 2.0916801205844116e+00 1.6358229422032036e+01 1 0 0
3326 1 3 -6.5000000000000002e-01 1.3143804245446788e+01 1.1204722886796075e+01 1.7070836446613185e+01 0 0 0
432 1 3 -6.5000000000000002e-01 1.4455411387307079e+01 8.7877378768668590e-01 1.6688196401442298e+01 1 0 0
3851 1 3 -6.5000000000000002e-01 1.5260042497917000e+01 1.0748285836859905e-01 1.0773790183698610e+01 1 0 0
7377 1 1 1.0000000000000000e+00 1.5247742253037474e+01 8.2541262540877351e+00 1.6937051782228497e+01 0 1 0
2894 1 3 -6.5000000000000002e-01 8.7754505741447080e+00 9.0713318685435791e+00 1.5760090066802050e+01 0 1 0