LAMMPS (3 Mar 2020)
  using 1 OpenMP thread(s) per MPI task
# ***************** Initialization # basis  ***************

echo	both

units		metal
dimension	3
boundary	p   p   p
atom_style	full
atom_modify	map	hash

# ****************** read data  *****************

read_restart	npt2.restart.2000000
  restoring atom style full from restart
  orthogonal box = (2.12417 2.84297 3.3889) to (50.198 50.9168 49.4168)
  3 by 4 by 2 MPI processor grid
  restoring pair style buck/coul/long from restart
  restoring bond style harmonic from restart
  restoring angle style harmonic from restart
  restoring improper style harmonic from restart
  8973 atoms
  5420 bonds
  5458 angles
  1780 impropers
  4 = max # of 1-2 neighbors
  6 = max # of 1-3 neighbors
  16 = max # of 1-4 neighbors
  20 = max # of special neighbors
  special bonds CPU = 0.00529907 secs
  read_restart CPU = 0.166152 secs

mass	1	6.940000	# Li
mass	2	14.006700	# n3
mass	3	15.999400	# o
mass	4	28.086000 	# si
mass	5	15.999400 	# oz

# *******************  Define a few parameters  **********************

variable    T	equal  773			# melt temperature
variable    T2	equal  373			# cool temperature
variable    T3	equal  573			# cool temperature
variable	Pre	equal	1			# Pressure
variable	DT	equal  0.0005			# timestep    1fs   (Read from the restart file)
variable	T_low	equal  950			# Heat sink
variable	T_high	equal  1050			# Heat source

# *********************  Potential  function setting  *****************

pair_style	buck/coul/long	15.0

pair_coeff	1	1	49.9328		0.342	0.4567
pair_coeff	1	2	270.2317	0.2984	2.2677
pair_coeff	1	3	367.2162	0.2815	2.269
pair_coeff	1	4	396.5310	0.3464	16.9145
pair_coeff	1	5	181.4382	0.3627	3.5001
pair_coeff	2	2	1462.4691	0.2646	11.2599
pair_coeff	2	3	1987.34		0.2513	11.2664
pair_coeff	2	4	2145.9890	0.3017	83.9870
pair_coeff	2	5	981.9270	0.3140	17.3791
pair_coeff	3	3	2700.5838	0.2392	11.2729
pair_coeff	3	4	2916.1710	0.2845	84.0355
pair_coeff	3	5	1334.3345	0.2954	17.3891
pair_coeff	4	4	3148.9684	0.351	626.4545
pair_coeff	4	5	1440.8542	0.3677	129.6298
pair_coeff	5	5	659.2828	0.386	26.8238

kspace_style	pppm	5e-5

bond_style	harmonic
bond_coeff	1	22.80523256	1.2627	#N-O
bond_coeff	2	12.3854274	1.68	#Si-O

angle_style	harmonic
angle_coeff	1	4.561046512	120.0	#O-N-O
angle_coeff	2	4.345764	109.5	#O-Si-O
angle_coeff	3	4.345764	149		#Si-O-Si

improper_style	harmonic
improper_coeff	1	2.606312292	0.0	#O-N-O-O

# *********************  thermo output  ************************

#thermo		1000
#thermo_style	custom	step	temp	lx	ly	lz	vol	pe	ke	etotal

# *********************** Initialization relaxation ***********************
# ***********************   Optimize at  0 K  ***********************
# ***********************  Static equilibrium  **************************

#dump		1	all	custom	1000	dump.mini	id	type	x	y	z
#dump_modify	1	sort	id

#min_style	cg
#minimize	1.0e-5	1.0e-8	1000000	1000000
#undump		1

#  *************************  Set velocity  **********************

reset_timestep	0

#velocity 	all	create	 ${T}  454864	mom	yes	rot	yes	dist	gaussian

fix		npt	all	npt	temp	${T}	${T}	0.1	iso	${Pre}	${Pre}	0.5
fix		npt	all	npt	temp	773	${T}	0.1	iso	${Pre}	${Pre}	0.5
fix		npt	all	npt	temp	773	773	0.1	iso	${Pre}	${Pre}	0.5
fix		npt	all	npt	temp	773	773	0.1	iso	1	${Pre}	0.5
fix		npt	all	npt	temp	773	773	0.1	iso	1	1	0.5
Resetting global fix info from restart file:
  fix style: npt, fix ID: npt

dump		npt	all	custom	500000	npt.dump	id	type	x	y	z
dump_modify	npt	sort	id

thermo_style 	custom	step	temp	lx	ly	lz	vol	press	pe	ke	etotal
thermo		5000

timestep	${DT}
timestep	0.0005

restart	1000000    npt2.restart

run		2000000
PPPM initialization ...
WARNING: System is not charge neutral, net charge = 21.1938 (../kspace.cpp:313)
  using 12-bit tables for long-range coulomb (../kspace.cpp:332)
  G vector (1/distance) = 0.186967
  grid = 20 20 20
  stencil order = 5
  estimated absolute RMS force accuracy = 0.000756246
  estimated relative force accuracy = 5.25184e-05
  using single precision MKL FFT
  3d grid and FFT values/proc = 1950 400
All restart file global fix info was re-assigned
Neighbor list info ...
  update every 1 steps, delay 10 steps, check yes
  max neighbors/atom: 2000, page size: 100000
  master list distance cutoff = 17
  ghost atom cutoff = 17
  binsize = 8.5, bins = 6 6 6
  1 neighbor lists, perpetual/occasional/extra = 1 0 0
  (1) pair buck/coul/long, perpetual
      attributes: half, newton on
      pair build: half/bin/newton
      stencil: half/bin/3d/newton
      bin: standard
Per MPI rank memory allocation (min/avg/max) = 13.28 | 13.63 | 13.66 Mbytes
Step Temp Lx Ly Lz Volume Press PotEng KinEng TotEng 
       0    779.38728    48.073858    48.073858    46.027898    106374.88    857.78262    -3075.274     903.8726   -2171.4014 
    5000    783.06968    47.935984    47.935984    45.895891    105462.27   -175.72516   -3080.5144    908.14316   -2172.3713 
   10000    767.94765    47.984663    47.984663    45.942499    105783.88    111.00174   -3070.8512     890.6058   -2180.2454 
   15000    779.53087    48.047056    48.047056    46.002236    106197.06   -19.267861   -3068.1573    904.03912   -2164.1181 
   20000    776.24344    47.990016    47.990016    45.947625    105819.29   -1754.9883   -3072.7426    900.22661    -2172.516 
   25000     778.6045    48.017959    48.017959    45.974378    106004.25    -498.1576    -3079.805    902.96478   -2176.8402 
   30000    770.72505    48.047034    48.047034    46.002216    106196.92   -1036.6101   -3070.3945    893.82681   -2176.5677 
   35000    773.51327    47.993694    47.993694    45.951146    105843.62    145.94558   -3082.6381    897.06037   -2185.5777 
   40000    783.33405    48.051823    48.051823    46.006801    106228.68    466.15608   -3082.6463    908.44974   -2174.1966 
   45000    760.08096    48.109018    48.109018    46.061562    106608.45   -172.06131   -3065.4621    881.48263   -2183.9795 
   50000    768.01789    47.998236    47.998236    45.955495    105873.68    1411.6441   -3054.1876    890.68727   -2163.5003 
   55000     766.5959    48.150977    48.150977    46.101734    106887.63   -1221.5912   -3054.3126    889.03815   -2165.2744 
   60000    779.38828    48.062279    48.062279    46.016812    106298.04    951.60375   -3073.0208    903.87375    -2169.147 
   65000    771.68131    48.121297    48.121297    46.073318    106690.11   -106.80496   -3058.7237    894.93581   -2163.7879 
   70000     783.7256    48.122777    48.122777    46.074735    106699.95    467.35576   -3068.9427    908.90384   -2160.0388 
   75000    770.11166     48.08975     48.08975    46.043114    106480.41   -874.29407   -3080.6199    893.11545   -2187.5044 
   80000    770.04254    48.019578    48.019578    45.975928    106014.96   -409.40208   -3055.2431    893.03529   -2162.2078 
   85000    782.74112    48.009857    48.009857     45.96662    105950.59   -563.14091    -3072.285    907.76211   -2164.5229 
   90000    775.12827    48.018875    48.018875    45.975255    106010.31    305.08168   -3076.5879    898.93333   -2177.6546 
   95000    776.88499    48.007505    48.007505    45.964369    105935.02    270.13473   -3066.6536    900.97063    -2165.683 
  100000    782.25762    48.170193    48.170193    46.120133    107015.66    853.65666    -3069.101    907.20139   -2161.8996 
  105000    777.73322    47.976623    47.976623    45.934801    105730.72    1089.8606   -3071.7824    901.95434    -2169.828 
  110000    781.66477    48.056893    48.056893    46.011655    106262.31    586.12385   -3067.7143    906.51384   -2161.2005 
  115000    787.44502     48.00108     48.00108    45.958217     105892.5   -519.29346   -3079.1706    913.21733   -2165.9533 
  120000    765.02985      47.9733      47.9733     45.93162    105708.75   -216.59085   -3068.2453    887.22197   -2181.0233 
  125000    768.78287    48.021175    48.021175    45.977457    106025.54    -198.9499   -3082.1827    891.57443   -2190.6083 
  130000    771.90755    48.080031    48.080031    46.033809    106415.87   -353.50787   -3079.1879    895.19819   -2183.9897 
  135000    780.95415    48.043876    48.043876    45.999192    106175.98    -667.6415    -3077.293    905.68973   -2171.6033 
  140000    783.12896    48.018107    48.018107     45.97452    106005.22    1096.1277   -3074.9059     908.2119    -2166.694 
  145000    764.04217    48.145485    48.145485    46.096477    106851.07   -982.06286   -3063.9001    886.07652   -2177.8236 
  150000    770.83725     48.19461     48.19461    46.143511    107178.48   -419.63816   -3056.0848    893.95694   -2162.1278 
  155000    769.14133     48.04366     48.04366    45.998985    106174.55   -1616.4402   -3079.5015    891.99014   -2187.5113 
  160000    774.38494    48.122803    48.122803     46.07476    106700.12    360.79176   -3083.3202    898.07127    -2185.249 
  165000    774.25113    48.125633    48.125633    46.077469    106718.94    47.712489   -3069.2664    897.91608   -2171.3504 
  170000    775.49599    48.098249    48.098249    46.051251    106536.88    837.39246   -3067.0952    899.35978   -2167.7354 
  175000    778.75879    48.169491    48.169491     46.11946    107010.98   -582.06758   -3079.2499    903.14372   -2176.1062 
  180000    776.99072     47.97153     47.97153    45.929925    105697.05   -366.29706   -3083.5088    901.09325   -2182.4156 
  185000    776.92657    48.118427    48.118427     46.07057    106671.02    294.16738   -3068.7857    901.01886   -2167.7668 
  190000    777.15197    48.115318    48.115318    46.067593    106650.34   -64.925539    -3079.434    901.28026   -2178.1537 
  195000    789.62495    48.173697    48.173697    46.123488    107039.01   -52.004735   -3062.8965    915.74544   -2147.1511 
  200000    757.51496     48.03846     48.03846    45.994006    106140.08     -577.036    -3073.379    878.50678   -2194.8722 
  205000    761.41117    48.168053    48.168053    46.118084     107001.4   -99.265058   -3075.0954     883.0253   -2192.0701 
  210000    780.38448    47.982936    47.982936    45.940845    105772.46   -127.61609   -3065.8216    905.02907   -2160.7925 
  215000    777.12449    48.026259    48.026259    45.982325    106059.23    694.83727   -3055.7186    901.24839   -2154.4702 
  220000    772.09383    48.105336    48.105336    46.058036    106583.98   -658.18507   -3075.4335    895.41422   -2180.0193 
  225000     772.7152    48.049241    48.049241    46.004328    106211.55    -244.0615    -3070.148    896.13484   -2174.0131 
  230000    767.62433    48.022124    48.022124    45.978366    106031.83    787.32518   -3085.7351    890.23084   -2195.5042 
  235000    774.22637    48.045097    48.045097    46.000361    106184.07   -1167.8698   -3081.1785    897.88737   -2183.2912 
  240000    760.25395    48.090768    48.090768    46.044088    106487.17   -896.13056   -3049.7995    881.68325   -2168.1162 
  245000    759.57991    48.079323    48.079323     46.03313    106411.16   -919.44483   -3056.7539    880.90155   -2175.8523 
  250000    768.56739    48.043667    48.043667    45.998992    106174.59    498.77251   -3070.6241    891.32452   -2179.2996 
  255000    768.18749    48.077374    48.077374    46.031264    106398.22    264.50095   -3072.2929    890.88395    -2181.409 
  260000    774.71622    48.055887    48.055887    46.010692    106255.63   -2178.7949   -3082.6014    898.45546    -2184.146 
  265000    774.22007    48.115401    48.115401    46.067673    106650.89     1113.463   -3064.3209    897.88007   -2166.4409 
  270000    776.86626    47.972099    47.972099     45.93047    105700.81   -1672.4182   -3056.4517    900.94891   -2155.5027 
  275000    777.48612    48.125681    48.125681    46.077515    106719.27   -888.67458   -3069.3805    901.66778   -2167.7128 
  280000    777.11708    48.127044    48.127044     46.07882    106728.33    51.292109    -3070.973    901.23979   -2169.7332 
  285000    762.59863    48.101255    48.101255    46.054129    106556.86   -612.63897   -3082.7444    884.40243    -2198.342 
  290000    766.66784    48.051096    48.051096    46.006105    106223.86    579.92148   -3071.9501    889.12157   -2182.8285 
  295000     788.6817    48.139937    48.139937    46.091165    106814.13   -156.53207   -3069.7656    914.65154   -2155.1141 
  300000    761.70289    48.132217    48.132217    46.083773    106762.75    -431.7412   -3071.5909    883.36362   -2188.2273 
  305000     768.1611    48.149575    48.149575    46.100392     106878.3   -152.97834   -3071.3922    890.85335   -2180.5388 
  310000    773.19526    48.117217    48.117217    46.069412    106662.97    1049.1141   -3072.0619    896.69157   -2175.3703 
  315000     780.2566    48.031845    48.031845    45.987673    106096.23   -520.20255   -3075.6911    904.88076   -2170.8104 
  320000    772.78292    48.020088    48.020088    45.976417    106018.35    767.64558    -3081.501    896.21337   -2185.2876 
  325000    778.71941    48.179579    48.179579    46.129119    107078.22    603.31877   -3073.3982    903.09805   -2170.3002 
  330000    768.07794    48.041955    48.041955    45.997353    106163.24   -1665.7762   -3086.4832     890.7569   -2195.7263 
  335000    778.03932    48.167301    48.167301    46.117364    106996.38    357.88401   -3059.6025    902.30933   -2157.2931 
  340000    784.43537    48.097652    48.097652    46.050679    106532.91    1363.4228   -3061.9609    909.72697   -2152.2339 
  345000    774.33208     48.04445     48.04445    45.999742    106179.79   -44.336734   -3078.0743    898.00997   -2180.0644 
  350000    771.71581    48.137059    48.137059    46.088409    106794.98    -806.3494   -3052.9992    894.97581   -2158.0234 
  355000    762.46216     48.03931     48.03931    45.994821    106145.71    -713.1293   -3067.7063    884.24416   -2183.4622 
  360000    767.66175    48.004445    48.004445    45.961439    105914.77   -601.63463   -3057.0113    890.27423   -2166.7371 
  365000     777.8885    47.976155    47.976155    45.934353    105727.62     985.1709   -3060.1897    902.13442   -2158.0552 
  370000     767.8431    48.013856    48.013856     45.97045    105977.08   -394.10684   -3066.1472    890.48455   -2175.6626 
  375000    766.11164    48.072675    48.072675    46.026765    106367.03   -1207.9018   -3067.1987    888.47654   -2178.7222 
  380000    773.97082    48.004958    48.004958     45.96193    105918.16   -631.97547   -3084.3463      897.591   -2186.7553 
  385000    773.97169    48.110568    48.110568    46.063045    106618.76   -235.52319   -3082.3758    897.59201   -2184.7838 
  390000    764.30967    48.099185    48.099185    46.052147     106543.1   -289.91411   -3071.3256    886.38676   -2184.9388 
  395000    756.42896    47.938228    47.938228    45.898041    105477.08   -470.03512   -3074.9573    877.24733     -2197.71 
  400000    772.97473    47.989354    47.989354     45.94699    105814.91   -438.55858   -3076.9911    896.43582   -2180.5552 
  405000    769.04131    47.991965    47.991965     45.94949    105832.18    31.660313   -3065.8588    891.87414   -2173.9847 
  410000    769.57893    48.099758    48.099758    46.052695     106546.9    448.14572   -3075.8382    892.49764   -2183.3406 
  415000    771.75834    48.103052    48.103052     46.05585     106568.8    810.79821   -3065.0497    895.02514   -2170.0245 
  420000    785.68566    48.123273    48.123273     46.07521    106703.25   -1287.9416   -3074.9368    911.17696   -2163.7598 
  425000    779.86735    47.943463    47.943463    45.903052    105511.64    567.21409   -3083.4547    904.42934   -2179.0254 
  430000     765.6447    47.943315    47.943315    45.902911    105510.66   -637.56217   -3070.6014    887.93502   -2182.6664 
  435000    769.72687     47.95668     47.95668    45.915707    105598.92   -655.24999   -3061.1622     892.6692    -2168.493 
  440000    760.45488    48.001135    48.001135     45.95827    105892.86   -215.70497   -3066.6483    881.91627   -2184.7321 
  445000    775.53291     48.15705     48.15705    46.107549    106928.08   -1729.8216   -3061.9613     899.4026   -2162.5587 
  450000    773.57691    48.013941    48.013941    45.970531    105977.64   -607.62139   -3088.6044    897.13418   -2191.4702 
  455000      775.045    48.176756    48.176756    46.126416     107059.4    1316.1418   -3055.1656    898.83676   -2156.3288 
  460000    756.60497    48.161194    48.161194    46.111517    106955.69   -1123.9275   -3073.2038    877.45145   -2195.7524 
  465000    777.59407    48.022334    48.022334    45.978567    106033.22   -413.41909   -3078.6876    901.79296   -2176.8946 
  470000    771.55102     47.98499     47.98499    45.942812    105786.05    1009.3405   -3076.1548    894.78471   -2181.3701 
  475000    777.36182    48.024972    48.024972    45.981092     106050.7    1382.2871   -3077.3757    901.52362   -2175.8521 
  480000    777.35021    48.216202    48.216202    46.164184    107322.59    1077.7611   -3053.7727    901.51016   -2152.2626 
  485000    785.46553     47.91506     47.91506    45.875858    105324.23    1452.2761   -3089.7953    910.92167   -2178.8736 
  490000    771.58003     47.91628     47.91628    45.877026    105332.27    114.36966   -3081.6792    894.81835   -2186.8609 
  495000     770.7844    47.978718    47.978718    45.936807    105744.57   -364.21891   -3095.0118    893.89564   -2201.1162 
  500000    782.75515    48.035216    48.035216    45.990901    106118.58   -1137.2431   -3063.8686    907.77839   -2156.0902 
  505000    776.43498    47.921757    47.921757     45.88227     105368.4    621.94321   -3080.9931    900.44874   -2180.5444 
  510000    773.50979    48.086811    48.086811    46.040299    106460.89    -98.36279   -3066.8664    897.05634   -2169.8101 
  515000    770.68356    48.068438    48.068438    46.022708    106338.91    -522.5464   -3078.9268     893.7787   -2185.1481 
  520000     766.7773    48.117269    48.117269    46.069461    106663.31   -1517.2267   -3072.8617    889.24852   -2183.6132 
  525000    770.92177    48.194355    48.194355    46.143267    107176.77    415.75151   -3058.6898    894.05495   -2164.6348 
  530000    757.91815    48.099423    48.099423    46.052375    106544.68   -295.86051   -3066.5715    878.97437   -2187.5971 
  535000    769.50087       47.985       47.985    45.942821    105786.11    1216.3827    -3082.641    892.40711   -2190.2339 
  540000    774.44684    47.943946    47.943946    45.903515    105514.83    735.03611   -3074.7361    898.14306    -2176.593 
  545000    780.32756     47.96682     47.96682    45.925416    105665.92    1061.4892   -3091.5729    904.96306   -2186.6099 
  550000    774.36052    48.091345    48.091345    46.044641    106491.01    1307.9162   -3065.6377    898.04295   -2167.5948 
  555000    766.81284    47.874322    47.874322    45.836854    105055.81    1653.1773   -3085.9163    889.28973   -2196.6266 
  560000    778.40933    48.028525    48.028525    45.984494    106074.24    -451.3072   -3082.7087    902.73844   -2179.9703 
  565000    760.95487    47.864618    47.864618    45.827563    104991.94    21.905751   -3079.4025    882.49612   -2196.9064 
  570000    770.33446       47.972       47.972    45.930375    105700.16   -1037.0036   -3082.5509    893.37383   -2189.1771 
  575000    770.75815    47.961825    47.961825    45.920633    105632.91    304.02821   -3074.0013     893.8652   -2180.1361 
  580000    773.16001     47.91203     47.91203    45.872957    105304.25    -7.036903   -3076.0865    896.65068   -2179.4358 
  585000    779.31235    48.031215    48.031215     45.98707    106092.06   -1170.4111   -3083.8496    903.78569   -2180.0639 
  590000    781.50859    47.992764    47.992764    45.950255    105837.47    747.42079   -3074.2286    906.33272   -2167.8959 
  595000    767.84627    48.078302    48.078302    46.032153    106404.39    1615.2552   -3066.4785    890.48823   -2175.9903 
  600000    770.22045    48.138443    48.138443    46.089734    106804.19    463.89512   -3061.7767    893.24162   -2168.5351 
  605000    767.07285    48.022464    48.022464    45.978691    106034.08    42.397051   -3072.6469    889.59127   -2183.0557 
  610000    767.57781    47.973774    47.973774    45.932073    105711.88   -371.72162   -3075.2311    890.17689   -2185.0542 
  615000    779.31142    48.076087    48.076087    46.030032    106389.68    1381.2163   -3060.5888    903.78462   -2156.8042 
  620000    778.62717    47.986689    47.986689    45.944439    105797.29    1350.5145   -3079.8947    902.99107   -2176.9037 
  625000    792.89229    48.116075    48.116075    46.068318    106655.37    926.63684   -3058.3898    919.53465   -2138.8552 
  630000    774.40156    48.166406    48.166406    46.116507    106990.42   -821.76159   -3066.5965    898.09054    -2168.506 
  635000    755.85287    48.043057    48.043057    45.998408    106170.55    982.47765   -3059.0031    876.57922   -2182.4238 
  640000    766.73479    47.988075    47.988075    45.945766    105806.45    2106.5074   -3083.9555    889.19922   -2194.7562 
  645000    779.71587    48.077907    48.077907    46.031775    106401.76   -904.44866   -3076.7412    904.25366   -2172.4876 
  650000    764.79486     48.00499     48.00499    45.961961    105918.37    383.93265   -3072.2702    886.94944   -2185.3208 
  655000     780.2803    48.032462    48.032462    45.988263    106100.32    349.90324     -3068.55    904.90824   -2163.6418 
  660000    767.12603    48.160059    48.160059     46.11043    106948.13    439.39559   -3055.9352    889.65295   -2166.2823 
  665000    772.53593    48.161759    48.161759    46.112058    106959.46    961.91921    -3044.812    895.92693   -2148.8851 
  670000    767.75022    48.045063    48.045063    46.000328    106183.85    -1631.944   -3063.1653    890.37684   -2172.7885 
  675000    768.17849    48.133766    48.133766    46.085256    106773.06   -1168.0233   -3064.2418    890.87351   -2173.3683 
  680000    772.98996    48.037684    48.037684    45.993263    106134.93    805.11327   -3071.2601    896.45347   -2174.8066 
  685000    767.89505    48.153452    48.153452    46.104104    106904.12   -523.02444   -3066.2153     890.5448   -2175.6705 
  690000    771.71889    47.958201    47.958201    45.917163    105608.97   -274.04368     -3081.46     894.9794   -2186.4806 
  695000    772.59237    48.099746    48.099746    46.052684    106546.83    369.46923   -3083.8073    895.99239   -2187.8149 
  700000    765.43372    47.930779    47.930779    45.890908    105427.92    891.05788   -3065.2443    887.69035    -2177.554 
  705000    778.11775    47.860114    47.860114     45.82325     104962.3    1491.3541   -3093.2161    902.40029   -2190.8158 
  710000    773.77922    48.018462    48.018462    45.974859    106007.57   -41.313288   -3091.9533     897.3688   -2194.5845 
  715000    784.44754    48.045798    48.045798    46.001033    106188.73    280.34262   -3058.7227    909.74109   -2148.9816 
  720000     778.1856     48.12301     48.12301    46.074958     106701.5   -931.05383   -3057.3255    902.47898   -2154.8465 
  725000    775.44086     48.09174     48.09174    46.045019    106493.63    812.20228   -3073.3176    899.29584   -2174.0218 
  730000    762.59864    48.063854    48.063854     46.01832    106308.49   -510.59849   -3084.3376    884.40243   -2199.9352 
  735000    776.82708    48.099564    48.099564     46.05251    106545.62   -708.10649   -3070.6438    900.90347   -2169.7403 
  740000    775.36549     48.06706     48.06706    46.021389    106329.76    1570.0387   -3059.0077    899.20843   -2159.7992 
  745000    776.85581    47.990692    47.990692    45.948272    105823.76    1038.4221   -3076.8156    900.93679   -2175.8788 
  750000    779.28492    48.036163    48.036163    45.991807    106124.85   -1028.8558   -3069.1827    903.75388   -2165.4289 
  755000    780.83389    48.032574    48.032574    45.988371    106101.07    175.75286   -3061.8679    905.55025   -2156.3176 
  760000    776.00929    48.094938    48.094938    46.048081    106514.88   -222.47634   -3069.9239    899.95507   -2169.9689 
  765000    767.86738    47.971242    47.971242    45.929649    105695.15   -518.06118   -3085.6772    890.51272   -2195.1645 
  770000    765.71366    48.042628    48.042628    45.997997     106167.7   -70.968238   -3054.4105    888.01499   -2166.3955 
  775000    769.03345    48.189928    48.189928    46.139028    107147.24    1628.2027   -3059.5989    891.86502   -2167.7339 
  780000    774.91476    48.031974    48.031974    45.987797    106097.09   -595.22526    -3089.825    898.68571   -2191.1393 
  785000    771.36139    48.045642    48.045642    46.000883    106187.69   -551.92833   -3062.2142    894.56479   -2167.6494 
  790000    773.99565    48.099553    48.099553    46.052499    106545.54    121.83559   -3064.3798    897.61979     -2166.76 
  795000    762.44847    48.108723    48.108723    46.061279    106606.49    462.24486   -3059.7307    884.22828   -2175.5024 
  800000    771.37211    48.077045    48.077045    46.030949    106396.04   -510.11698   -3073.5504    894.57722   -2178.9732 
  805000    771.71379     47.92029     47.92029    45.880865    105358.72   -202.74556   -3091.8474    894.97348   -2196.8739 
  810000     774.6264    48.123205    48.123205    46.075144    106702.79    528.84081   -3070.8838    898.35129   -2172.5325 
  815000    773.74651    48.124211    48.124211    46.076108    106709.49    346.20812   -3060.4461    897.33086   -2163.1152 
  820000    793.24676    48.161918    48.161918     46.11221    106960.51    585.50885   -3071.4289    919.94573   -2151.4832 
  825000    772.45271    48.078143    48.078143    46.032001    106403.33     -1007.87   -3073.5362    895.83042   -2177.7058 
  830000     765.0386     48.04345     48.04345    45.998784    106173.15     570.0538   -3067.2254    887.23211   -2179.9933 
  835000    774.62295    47.928259    47.928259    45.888495    105411.29    494.42872   -3064.2568     898.3473   -2165.9095 
  840000    765.41869    48.128476    48.128476    46.080191    106737.86   -1477.5929   -3074.9821    887.67291   -2187.3092 
  845000    774.76916    48.050489    48.050489    46.005524    106219.83    1083.1194   -3076.0838    898.51686   -2177.5669 
  850000    773.89331    48.011366    48.011366    45.968065    105960.58    714.47087   -3071.3718    897.50111   -2173.8707 
  855000    776.09508    48.078055    48.078055    46.031917    106402.75    1104.6324   -3073.7042    900.05456   -2173.6497 
  860000    772.59196     48.04462     48.04462    45.999904    106180.91    965.61725   -3071.2147    895.99191   -2175.2228 
  865000    767.03792    48.044251    48.044251    45.999551    106178.46    404.83369   -3056.8661    889.55077   -2167.3154 
  870000    771.77627    48.035523    48.035523    45.991194    106120.61   -709.75312   -3061.3182    895.04594   -2166.2723 
  875000    780.61284    48.032228    48.032228    45.988039    106098.77   -899.59319   -3075.8548     905.2939   -2170.5609 
  880000    774.20558    48.014616    48.014616    45.971177    105982.11    -362.9698   -3080.7879    897.86326   -2182.9246 
  885000     770.1351     48.13428     48.13428    46.085749    106776.48    960.91514   -3072.0217    893.14263   -2178.8791 
  890000    774.28108    48.113805    48.113805    46.066145    106640.28    -334.3467   -3064.8051    897.95082   -2166.8543 
  895000    761.98015    48.203618    48.203618    46.152136    107238.59    11.412485   -3072.2556    883.68516   -2188.5704 
  900000    777.63512    47.987847    47.987847    45.945548    105804.95   -1398.8745   -3074.9284    901.84058   -2173.0878 
  905000    766.63632     47.99506     47.99506    45.952453    105852.66   -690.88433   -3080.5074    889.08502   -2191.4224 
  910000    782.88043    48.044227    48.044227    45.999528    106178.31    1728.9133   -3066.3257    907.92367    -2158.402 
  915000    771.33056    48.166086    48.166086      46.1162    106988.28   -1165.7682   -3063.2958    894.52904   -2168.7668 
  920000    761.97808    48.155904    48.155904    46.106452    106920.45   -588.56203   -3066.8823    883.68276   -2183.1996 
  925000    775.94987    48.042015    48.042015     45.99741    106163.64   -228.17776    -3071.932    899.88615   -2172.0458 
  930000    759.74025    48.143796    48.143796     46.09486    106839.82   -54.410093   -3067.2368    881.08749   -2186.1493 
  935000    782.99052    48.152679    48.152679    46.103364    106898.97    539.00376   -3063.8119    908.05135   -2155.7606 
  940000    786.03408    47.993487    47.993487    45.950947    105842.25   -280.60401   -3073.4258    911.58104   -2161.8448 
  945000    777.98171    48.114018    48.114018    46.066348    106641.69    186.72793   -3070.1443    902.24252   -2167.9017 
  950000    772.95168    47.976878    47.976878    45.935045     105732.4    798.86609   -3078.8637    896.40909   -2182.4546 
  955000    762.12264    48.172753    48.172753    46.122584    107032.72   -1951.1786   -3065.6173     883.8504   -2181.7669 
  960000    773.88512    47.989206    47.989206    45.946849    105813.93    1674.2981   -3081.3803    897.49161   -2183.8887 
  965000    781.81148    48.123644    48.123644    46.075565    106705.72   -416.81373    -3066.335    906.68399    -2159.651 
  970000      769.012    47.978366    47.978366     45.93647    105742.24   -1204.3963   -3077.3484    891.84015   -2185.5083 
  975000    776.01345    48.083017    48.083017    46.036667     106435.7   -689.99879   -3085.2985    899.95989   -2185.3386 
  980000    766.30759    48.118564    48.118564    46.070701    106671.92   -1099.2743   -3063.2104    888.70379   -2174.5066 
  985000    777.96407    48.150454    48.150454    46.101234    106884.15   -230.70305   -3072.8936    902.22206   -2170.6715 
  990000    770.38566    48.086176    48.086176    46.039692    106456.67   -552.57638   -3068.8029    893.43322   -2175.3697 
  995000     764.7774    48.037467    48.037467    45.993056    106133.49    943.27119   -3081.8997    886.92919   -2194.9705 
 1000000    779.62611    48.011068    48.011068     45.96778    105958.61    1533.7835   -3067.7387    904.14957   -2163.5892 
 1005000    775.25851    48.148942    48.148942    46.099787    106874.09   -722.25422   -3074.4837    899.08437   -2175.3993 
 1010000    785.67453    48.002873    48.002873    45.959934    105904.37     102.8313   -3080.1878    911.16406   -2169.0237 
 1015000     768.1338    48.223751    48.223751    46.171411    107373.01   -1136.2108    -3057.368    890.82168   -2166.5463 
 1020000    776.33254     48.05913     48.05913    46.013796    106277.14   -852.18132   -3076.8486    900.32994   -2176.5187 
 1025000    761.05518    47.968654    47.968654    45.927171    105678.04    1713.8229    -3078.757    882.61245   -2196.1446 
 1030000    784.72995    48.024906    48.024906    45.981029    106050.26    298.71523   -3066.2476    910.06861    -2156.179 
 1035000    763.10065    48.066607    48.066607    46.020956    106326.76   -1267.6783   -3072.6637    884.98463   -2187.6791 
 1040000    774.81332    47.908836    47.908836    45.869899    105283.18    2453.8768   -3078.3634    898.56807   -2179.7953 
 1045000    771.07679    48.001008    48.001008    45.958148    105892.02    2151.2978   -3082.9722    894.23473   -2188.7374 
 1050000    761.62045    47.866204    47.866204    45.829081    105002.37    2418.4497     -3095.76    883.26801    -2212.492 
 1055000    774.30973    48.102365    48.102365    46.055192    106564.23    562.25957   -3075.8573    897.98405   -2177.8732 
 1060000    764.51826    47.962127    47.962127    45.920922    105634.91    400.20126   -3071.5447    886.62866    -2184.916 
 1065000    765.21434    48.028504    48.028504    45.984474     106074.1    91.163824   -3076.6281    887.43592   -2189.1921 
 1070000    774.02715    48.075315    48.075315    46.029293    106384.55   -1019.8926   -3063.0985    897.65633   -2165.4422 
 1075000    782.71757    47.982425    47.982425    45.940356    105769.09   -1132.5366   -3063.9621     907.7348   -2156.2273 
 1080000    773.54723    48.012143    48.012143    45.968809    105965.73   -318.75765    -3062.807    897.09975   -2165.7072 
 1085000    784.28926    47.967632    47.967632    45.926193    105671.29    378.71703     -3064.57    909.55752   -2155.0125 
 1090000    769.10934    48.081912    48.081912     46.03561    106428.36   -934.28737   -3072.1366    891.95304   -2180.1836 
 1095000    771.36028    47.926386    47.926386    45.886702    105398.93   -18.914948    -3076.567     894.5635   -2182.0035 
 1100000    766.11316    48.070377    48.070377    46.024565    106351.78   -495.87049   -3066.7166     888.4783   -2178.2383 
 1105000    782.70773    48.048063    48.048063    46.003201    106203.74    484.95121   -3075.9437    907.72339   -2168.2203 
 1110000    781.10114     47.98102     47.98102    45.939011    105759.79    146.62823    -3074.767    905.86019   -2168.9068 
 1115000    784.24879    48.027469    48.027469    45.983483    106067.24   -478.25338   -3072.3355    909.51059   -2162.8249 
 1120000    764.25153    48.024775    48.024775    45.980903    106049.39    -719.4617   -3063.1909    886.31933   -2176.8716 
 1125000    773.80033    48.035434    48.035434    45.991109    106120.02    825.78904   -3068.4899    897.39328   -2171.0966 
 1130000    782.52059    47.991884    47.991884    45.949413    105831.65    1648.8312   -3076.2252    907.50636   -2168.7189 
 1135000    786.94416    47.980179    47.980179    45.938206    105754.23     948.1367    -3077.606    912.63647   -2164.9696 
 1140000    783.76425    48.105453    48.105453    46.058148    106584.75    568.99768   -3083.3527    908.94866    -2174.404 
 1145000    763.93439    48.179063    48.179063    46.128626    107074.79   -238.64193   -3066.9983    885.95154   -2181.0467 
 1150000    769.62129    47.999795    47.999795    45.956987    105883.99   -415.47735   -3081.8321    892.54676   -2189.2854 
 1155000    771.70136    48.186616    48.186616    46.135857    107125.15   -1454.0607   -3053.6233    894.95906   -2158.6642 
 1160000    786.18558    48.000151    48.000151    45.957327    105886.35    98.719816   -3086.5256    911.75673   -2174.7689 
 1165000    772.99335    48.107146    48.107146     46.05977    106596.01   -1613.3161   -3079.7177    896.45741   -2183.2603 
 1170000     768.1953    48.163619    48.163619    46.113839    106971.85   -1385.2782   -3075.9371      890.893   -2185.0441 
 1175000    779.94956    48.121565    48.121565    46.073574    106691.88   -60.888758   -3090.0794    904.52468   -2185.5547 
 1180000    779.99265    48.169245    48.169245    46.119225    107009.34   -1170.7639   -3061.0534    904.57466   -2156.4787 
 1185000    771.26374    47.988709    47.988709    45.946373    105810.65    1718.7452   -3079.5753    894.45155   -2185.1237 
 1190000    778.93701    48.026168    48.026168    45.982238    106058.62   -285.58007   -3063.8839     903.3504   -2160.5335 
 1195000     774.2757     48.07646     48.07646     46.03039    106392.16    423.62732   -3059.4308    897.94458   -2161.4862 
 1200000    774.12558    48.092783    48.092783    46.046017    106500.56    141.62461   -3067.2078    897.77048   -2169.4374 
 1205000    784.10428    48.174262    48.174262    46.124029    107042.78   -1343.9522   -3066.5301    909.34299   -2157.1871 
 1210000    776.76488    47.976126    47.976126    45.934325    105727.44   -858.88498   -3075.8408    900.83134   -2175.0094 
 1215000    766.34076    48.045871    48.045871    46.001102    106189.21    1759.5224   -3054.1792    888.74225    -2165.437 
 1220000      772.534    48.185957    48.185957    46.135226    107120.76    673.65164   -3063.8595    895.92469   -2167.9348 
 1225000    775.67754    48.104907    48.104907    46.057625    106581.12   -1112.1596   -3070.3346    899.57033   -2170.7643 
 1230000    771.93134    48.084172    48.084172    46.037773    106443.36    518.52647   -3074.0177    895.22577   -2178.7919 
 1235000     775.9956    48.123006    48.123006    46.074955    106701.47    444.66338   -3063.1199    899.93919   -2163.1807 
 1240000    766.07134    48.074827    48.074827    46.028825    106381.31    621.76364   -3074.2122     888.4298   -2185.7824 
 1245000    769.34793    48.057215    48.057215    46.011963    106264.44   -6.4865898    -3085.096    892.22973   -2192.8662 
 1250000     774.7436    48.024809    48.024809    45.980937    106049.62    37.201398   -3075.3161    898.48721   -2176.8288 
 1255000    765.62717    48.139197    48.139197    46.090456    106809.21     1663.652    -3060.664    887.91468   -2172.7493 
 1260000    776.30691    48.035352    48.035352    45.991031    106119.48    215.48387   -3079.5073    900.30022    -2179.207 
 1265000    779.15919    48.031634    48.031634    45.987471    106094.84   -267.89205   -3077.6833    903.60807   -2174.0753 
 1270000    764.69594    47.969263    47.969263    45.927754    105682.07    501.49803    -3081.401    886.83472   -2194.5663 
 1275000    766.94103    48.040086    48.040086    45.995563    106150.85   -1475.8543   -3073.4495     889.4384   -2184.0111 
 1280000    767.58427    48.069284    48.069284    46.023518    106344.52   -1616.9614   -3060.9418    890.18438   -2170.7575 
 1285000      777.378    48.056133    48.056133    46.010928    106257.27    1175.6829    -3063.928    901.54238   -2162.3856 
 1290000    776.15351    47.978889    47.978889     45.93697     105745.7    -37.28936   -3083.8148    900.12231   -2183.6925 
 1295000     789.7858    48.187715    48.187715    46.136909    107132.48   -173.65004   -3050.1823    915.93198   -2134.2504 
 1300000    777.89519    48.124579    48.124579     46.07646    106711.93   -11.018371   -3063.5735    902.14218   -2161.4313 
 1305000    767.61878    48.080783    48.080783    46.034528    106420.86   -965.86697   -3072.4659     890.2244   -2182.2415 
 1310000    777.06297    48.046048    48.046048    46.001271    106190.38    213.96164   -3079.5173    901.17704   -2178.3403 
 1315000    769.91968    48.126525    48.126525    46.078323    106724.88    300.82208   -3070.1601     892.8928   -2177.2673 
 1320000    777.04779    48.077337    48.077337    46.031228    106397.98    268.48201   -3064.7663    901.15943   -2163.6068 
 1325000    778.51865    47.959735    47.959735    45.918632    105619.11    -1033.721   -3069.2994    902.86522   -2166.4342 
 1330000     776.0399    48.043367    48.043367    45.998705    106172.61    -1466.746   -3076.4944    899.99056   -2176.5038 
 1335000    767.71286    48.014659    48.014659    45.971218    105982.39    365.11362   -3062.5953    890.33351   -2172.2618 
 1340000    782.40881    48.147718    48.147718    46.098614    106865.93    -1136.095   -3055.6263    907.37673   -2148.2496 
 1345000    769.44977    48.097589    48.097589    46.050619    106532.49    610.98221   -3054.0238    892.34784    -2161.676 
 1350000    772.64649    47.983235    47.983235    45.941132    105774.44    910.64235   -3073.1214    896.05515   -2177.0663 
 1355000    760.64235    48.075996    48.075996    46.029945    106389.08    857.88063   -3079.1617    882.13369    -2197.028 
 1360000    778.86926    48.051234    48.051234    46.006237    106224.77   -395.89026   -3066.1694    903.27183   -2162.8976 
 1365000    771.34176    48.089066    48.089066    46.042458    106475.87   -1786.2539   -3076.8167    894.54202   -2182.2747 
 1370000    773.47708    48.153123    48.153123    46.103789    106901.93     290.4448   -3054.7611    897.01841   -2157.7427 
 1375000    765.77776    48.002631    48.002631    45.959702    105902.76    349.13305    -3062.136    888.08933   -2174.0467 
 1380000    782.26327    48.024863    48.024863    45.980988    106049.98    -627.1438   -3078.4666    907.20794   -2171.2587 
 1385000    789.47666    48.054044    48.054044    46.008927    106243.41   -826.87716    -3054.897    915.57347   -2139.3236 
 1390000    769.17285    48.028213    48.028213    45.984196    106072.17    288.32237   -3068.1835    892.02669   -2176.1568 
 1395000    778.83187    48.013659    48.013659    45.970261    105975.77   -32.879531    -3078.016    903.22847   -2174.7875 
 1400000    778.36762    48.021326    48.021326    45.977601    106026.54   -165.93664   -3072.8942    902.69007   -2170.2042 
 1405000    775.86964     48.06641     48.06641    46.020767    106325.45     -1158.04   -3067.3631     899.7931     -2167.57 
 1410000     764.2386    48.088966    48.088966    46.042363     106475.2     287.4507   -3074.0095    886.30433   -2187.7052 
 1415000    769.55673     48.14368     48.14368    46.094749    106839.05     1040.235   -3057.9804    892.47188   -2165.5085 
 1420000    775.88433    47.966842    47.966842    45.925437    105666.07    863.28815   -3060.2561    899.81015   -2160.4459 
 1425000    768.19935    47.987654    47.987654    45.945362    105803.66    402.21712   -3071.0192     890.8977   -2180.1215 
 1430000    764.48281    48.013561    48.013561    45.970167    105975.12    4.1534106   -3070.0688    886.58755   -2183.4812 
 1435000    771.42786    48.051728    48.051728     46.00671    106228.05    1021.2678   -3074.1843    894.64188   -2179.5424 
 1440000    763.39201    47.904783    47.904783    45.866019    105256.47    1970.0673   -3082.6798    885.32253   -2197.3573 
 1445000    778.87066    48.088705    48.088705    46.042113    106473.47    1600.6859   -3070.2908    903.27345   -2167.0173 
 1450000    772.15032    48.015011    48.015011    45.971555    105984.72    312.67623   -3070.9558    895.47973    -2175.476 
 1455000    777.99741    48.129395    48.129395    46.081071    106743.98    1110.9292   -3063.0494    902.26073   -2160.7887 
 1460000    776.58429    47.968691    47.968691    45.927207    105678.29    655.18153   -3066.6355     900.6219   -2166.0136 
 1465000    767.46465    48.008439    48.008439    45.965263    105941.21    -547.4467   -3083.3101    890.04565   -2193.2644 
 1470000    763.28131    47.965882    47.965882    45.924517    105659.72   -181.24618   -3069.3917    885.19414   -2184.1975 
 1475000    772.79381    48.016081    48.016081     45.97258    105991.81    323.97247   -3077.7902      896.226   -2181.5642 
 1480000    775.00424    48.016979    48.016979    45.973439    105997.75   -264.96988    -3076.219    898.78949   -2177.4295 
 1485000    782.75234    47.962702    47.962702    45.921473    105638.71    1357.2442   -3080.9928    907.77512   -2173.2177 
 1490000     776.9377    47.913655    47.913655    45.874513    105314.96   -228.38343   -3078.0883    901.03176   -2177.0565 
 1495000    778.20518     48.02742     48.02742    45.983436    106066.92    376.59955   -3085.5316    902.50168   -2183.0299 
 1500000    783.73284    48.021256    48.021256    45.977534    106026.08    107.28322   -3073.0991    908.91223   -2164.1869 
 1505000    768.23663    47.999743    47.999743    45.956937    105883.65    -753.6286   -3059.2295    890.94094   -2168.2886 
 1510000    777.16847    48.001283    48.001283    45.958412    105893.84    281.61487   -3073.8923    901.29939   -2172.5929 
 1515000    769.29562    47.978555    47.978555    45.936651     105743.5     908.3795   -3069.8065    892.16907   -2177.6374 
 1520000    768.75094    48.048479    48.048479    46.003599     106206.5   -1323.1367   -3071.2886     891.5374   -2179.7512 
 1525000    775.70958    48.059475    48.059475    46.014127    106279.43   -35.069468   -3066.1847    899.60748   -2166.5772 
 1530000    767.82519    48.022853    48.022853    45.979063    106036.66   -1710.7959   -3082.6288    890.46378    -2192.165 
 1535000    790.83565    48.100488    48.100488    46.053394    106551.75   -2171.7603   -3075.6656    917.14951   -2158.5161 
 1540000    774.64647    48.012107    48.012107    45.968774    105965.49   -33.368783   -3065.0917    898.37457   -2166.7171 
 1545000    777.45715    47.970863    47.970863    45.929286    105692.64   -2000.1471   -3086.3944    901.63417   -2184.7602 
 1550000    777.67785    48.059819    48.059819    46.014457    106281.72   -258.63531   -3068.6402    901.89013   -2166.7501 
 1555000    771.38291    47.995057    47.995057     45.95245    105852.64   -18.263717   -3067.8354    894.58974   -2173.2456 
 1560000    766.77677    48.047204    48.047204    46.002378    106198.05   -1452.4909   -3063.5356     889.2479   -2174.2877 
 1565000    777.98875    48.063794    48.063794    46.018262    106308.09    813.46798   -3067.7393    902.25069   -2165.4886 
 1570000    771.33453    47.990549    47.990549    45.948135    105822.82    1859.3483   -3076.3773    894.53364   -2181.8437 
 1575000    782.21592     48.07906     48.07906    46.032879    106409.42    1160.6257   -3072.0986    907.15302   -2164.9455 
 1580000    781.87617    47.979088    47.979088    45.937161    105747.02   -679.53855   -3061.7009    906.75901   -2154.9418 
 1585000     774.7999     48.08306     48.08306    46.036708    106435.98    1130.2461   -3078.3192    898.55251   -2179.7667 
 1590000    766.87677    48.144254    48.144254    46.095298    106842.87    971.66225    -3058.811    889.36388   -2169.4471 
 1595000    760.21457    48.176096    48.176096    46.125785    107055.01   -512.84395   -3075.1874    881.63757   -2193.5498 
 1600000    772.89469    48.053492    48.053492    46.008399    106239.75   -1891.2189   -3081.2554      896.343   -2184.9124 
 1605000    770.96104    47.950901    47.950901    45.910174    105560.75   -610.79145   -3072.8055     894.1005    -2178.705 
 1610000    772.45041    48.075867    48.075867    46.029821    106388.22    -2040.762   -3078.0017    895.82775   -2182.1739 
 1615000     780.7743    48.037881    48.037881    45.993452    106136.24    122.55162    -3078.987    905.48114   -2173.5059 
 1620000    781.86668    48.124736    48.124736    46.076611    106712.98      1087.35   -3059.8618    906.74801   -2153.1138 
 1625000    788.42869    48.145946    48.145946    46.096918    106854.14    266.04805   -3073.9292    914.35811   -2159.5711 
 1630000    765.47395    48.162573    48.162573    46.112837    106964.88   -440.12811   -3064.4659      887.737   -2176.7289 
 1635000    774.41881    47.944037    47.944037    45.903602    105515.43   -607.18855   -3083.4963    898.11055   -2185.3857 
 1640000    770.42834    47.989527    47.989527    45.947156    105816.05   -624.02791   -3083.4575    893.48271   -2189.9748 
 1645000    769.98256    48.170489    48.170489    46.120416    107017.63    132.01639   -3061.6475    892.96573   -2168.6818 
 1650000    782.30504    47.962795    47.962795    45.921562    105639.33    -208.3422   -3076.4364    907.25638     -2169.18 
 1655000    769.97264    48.221213    48.221213    46.168982    107356.06   -996.73299   -3065.2876    892.95423   -2172.3333 
 1660000    766.61038    48.006799    48.006799    45.963693    105930.35   -383.84419   -3066.1617    889.05493   -2177.1068 
 1665000    771.71531     48.18818     48.18818    46.137354    107135.58   -1297.3407   -3069.2011    894.97524   -2174.2259 
 1670000    758.76233    47.991628    47.991628    45.949168    105829.96    -31.99926   -3067.1789    879.95339   -2187.2255 
 1675000    771.11025    47.949063    47.949063    45.908414    105548.61    157.14149   -3073.3165    894.27354    -2179.043 
 1680000    779.87469    48.104947    48.104947    46.057664    106581.39    323.10004   -3077.5533    904.43785   -2173.1155 
 1685000    774.74396     48.03416     48.03416     45.98989    106111.58    1230.1458   -3071.9788    898.48763   -2173.4911 
 1690000    770.83872    48.122148    48.122148    46.074133    106695.77   -389.98535   -3073.4045    893.95864   -2179.4459 
 1695000    779.78861    47.979426    47.979426    45.937485    105749.25   -481.88748   -3075.5298    904.33803   -2171.1917 
 1700000    772.34135    48.068015    48.068015    46.022304     106336.1    319.92765   -3076.2989    895.70127   -2180.5976 
 1705000    769.80396    48.044475    48.044475    45.999766    106179.95   -1280.7912   -3066.5253    892.75861   -2173.7667 
 1710000    780.85121    47.934929    47.934929    45.894882    105455.31   -925.05055   -3088.1294    905.57035    -2182.559 
 1715000    774.08762    47.908432    47.908432    45.869512    105280.52   -34.879107   -3073.7093    897.72646   -2175.9828 
 1720000    777.90066    48.004982    48.004982    45.961953    105918.32    -1378.425   -3070.1017    902.14852   -2167.9532 
 1725000    778.21105    48.139059    48.139059    46.090324    106808.29    583.89153   -3069.3771    902.50849   -2166.8686 
 1730000    780.40955     48.08575     48.08575    46.039284    106453.85   -844.06127   -3084.1565    905.05814   -2179.0983 
 1735000    774.78072    48.093067    48.093067    46.046289    106502.44   -31.116888   -3078.9095    898.53026   -2180.3793 
 1740000    769.64721    48.067862    48.067862    46.022157    106335.08    523.73224   -3084.3668    892.57682     -2191.79 
 1745000    781.61402     48.04319     48.04319    45.998535    106171.43   -803.20573   -3075.7306      906.455   -2169.2756 
 1750000    782.40461    47.943834    47.943834    45.903407    105514.09    1703.7523    -3085.242    907.37186   -2177.8701 
 1755000    780.48941    48.130271    48.130271     46.08191     106749.8    511.06091   -3059.1804    905.15076   -2154.0296 
 1760000     769.1263    48.118057    48.118057    46.070216    106668.55   -170.83211   -3073.2579    891.97271   -2181.2851 
 1765000    772.21834    48.096212    48.096212    46.049301    106523.34    120.56509   -3074.5626    895.55861    -2179.004 
 1770000    763.43947    48.220348    48.220348    46.168153    107350.28   -614.02156   -3063.1262    885.37757   -2177.7487 
 1775000    790.68316     48.05756     48.05756    46.012294    106266.73   -480.75158   -3064.1378    916.97267   -2147.1652 
 1780000    782.08139    48.088411    48.088411    46.041832    106471.52    -1220.226   -3068.4569    906.99701   -2161.4599 
 1785000    774.63494    48.148009    48.148009    46.098893    106867.87   -605.84605    -3059.095     898.3612   -2160.7338 
 1790000    771.46831    48.169924    48.169924    46.119875    107013.86     159.4376    -3070.524    894.68878   -2175.8352 
 1795000    759.61299    47.959759    47.959759    45.918655    105619.26    1277.2683   -3076.5006    880.93991   -2195.5607 
 1800000    765.02897    48.138268    48.138268    46.089567    106803.02   -1511.9012   -3067.5928    887.22094   -2180.3719 
 1805000     771.1786     48.00369     48.00369    45.960716    105909.77    55.915073   -3064.9952    894.35281   -2170.6423 
 1810000    776.12822    47.923336    47.923336    45.883782    105378.81   -633.64282   -3074.3673    900.09299   -2174.2743 
 1815000    773.06617    48.034828    48.034828    45.990529       106116   -1636.5257   -3071.2151    896.54186   -2174.6733 
 1820000    771.67832    47.961043    47.961043    45.919884    105627.75     135.9507   -3088.8815    894.93234   -2193.9491 
 1825000    767.09949     48.16464     48.16464    46.114817    106978.65    -516.5246   -3068.1153    889.62217   -2178.4931 
 1830000    765.78746    48.023547    48.023547    45.979728    106041.25    -1730.973   -3080.0392    888.10059   -2191.9387 
 1835000    782.90528    48.037685    48.037685    45.993265    106134.94   -948.99291   -3066.2563    907.95249   -2158.3038 
 1840000    768.36975     47.99992     47.99992    45.957107    105884.82   -974.81017   -3075.7125    891.09532   -2184.6171 
 1845000    767.73253    48.107989    48.107989    46.060576    106601.61   -2351.9148   -3064.3422    890.35632   -2173.9859 
 1850000    775.30049    48.119525    48.119525    46.071621    106678.32    -94.63735   -3080.3494    899.13305   -2181.2164 
 1855000    780.61693    48.091116    48.091116    46.044421    106489.49    641.93297   -3072.4845    905.29864   -2167.1858 
 1860000    763.74277    48.046384    48.046384    46.001593    106192.61   -520.67428   -3045.6858    885.72931   -2159.9565 
 1865000    780.24599    48.030751    48.030751    45.986625    106088.98    212.46893   -3076.3124    904.86845    -2171.444 
 1870000    775.12871    48.011763    48.011763    45.968445    105963.21    286.63583   -3089.2198    898.93383    -2190.286 
 1875000    766.12772    47.937483    47.937483    45.897327    105472.16     362.6369   -3071.8451    888.49518   -2183.3499 
 1880000    772.16907    48.090263    48.090263    46.043604    106483.82    1293.1978   -3077.5131    895.50147   -2182.0116 
 1885000    768.61943    48.039749    48.039749    45.995241    106148.62    458.27722   -3077.6357    891.38487   -2186.2508 
 1890000    763.00796    48.068417    48.068417    46.022688    106338.77   -1297.2866   -3080.9013    884.87713   -2196.0241 
 1895000    760.05967     47.90941     47.90941    45.870449    105286.97   -418.67032   -3079.0922    881.45793   -2197.6343 
 1900000    769.98948    48.097433    48.097433     46.05047    106531.46   -2454.5696   -3073.1093    892.97375   -2180.1355 
 1905000    773.16664    47.848088    47.848088    45.811736     104883.2    502.66855   -3070.4203    896.65838   -2173.7619 
 1910000    772.60108    48.103633    48.103633    46.056406    106572.66    2104.5232   -3058.7982    896.00249   -2162.7957 
 1915000    766.03707    48.007571    48.007571    45.964432    105935.46    1400.0353   -3079.1966    888.39005   -2190.8065 
 1920000    773.86393    48.046153    48.046153    46.001372    106191.07    680.46202   -3079.3781    897.46704    -2181.911 
 1925000    773.05256    48.119775    48.119775    46.071861    106679.98   -259.29267   -3064.9886    896.52607   -2168.4625 
 1930000    763.72023    48.167096    48.167096    46.117168    106995.02   -2199.6969   -3065.9762    885.70316    -2180.273 
 1935000    776.34165    48.150997    48.150997    46.101754    106887.77   -494.88286   -3072.7899     900.3405   -2172.4494 
 1940000    776.85714    48.151666    48.151666    46.102395    106892.23   -2663.2572   -3059.2387    900.93833   -2158.3004 
 1945000    768.23481    48.044999    48.044999    46.000267    106183.42   -309.68606   -3078.7835    890.93883   -2187.8447 
 1950000    766.27729     48.08793     48.08793    46.041371    106468.32   -181.89382   -3069.4214    888.66865   -2180.7528 
 1955000    776.44682    48.068853    48.068853    46.023106    106341.66   -98.031797   -3069.5938    900.46247   -2169.1313 
 1960000    774.42689    48.076894    48.076894    46.030805    106395.04    68.074985   -3056.6872    898.11992   -2158.5673 
 1965000    774.46278    47.924092    47.924092    45.884506     105383.8   -166.32061   -3082.0577    898.16154   -2183.8961 
 1970000    777.98712    47.913549    47.913549    45.874411    105314.26    290.72102   -3070.7252     902.2488   -2168.4764 
 1975000    773.85138    47.974145    47.974145    45.932428    105714.34    1196.6174   -3065.6866    897.45249   -2168.2341 
 1980000    773.68401     48.04705     48.04705     46.00223    106197.02    827.42537   -3082.4553    897.25838   -2185.1969 
 1985000    776.64893    48.201484    48.201484    46.150092    107224.34    191.96201    -3067.757    900.69686   -2167.0601 
 1990000    776.31276     48.09032     48.09032    46.043659     106484.2    750.72057   -3077.8544      900.307   -2177.5474 
 1995000    770.95484    48.075506    48.075506    46.029476    106385.82   -597.79366   -3061.2185    894.09331   -2167.1252 
 2000000    780.10784    48.067936    48.067936    46.022228    106335.58    1355.3901   -3060.7209    904.70824   -2156.0127 
Loop time of 29112.4 on 24 procs for 2000000 steps with 8973 atoms

Performance: 2.968 ns/day, 8.087 hours/ns, 68.699 timesteps/s
99.9% CPU use with 24 MPI tasks x 1 OpenMP threads

MPI task timing breakdown:
Section |  min time  |  avg time  |  max time  |%varavg| %total
---------------------------------------------------------------
Pair    | 21314      | 24185      | 26209      | 831.0 | 83.07
Bond    | 106.49     | 108.53     | 115.46     |  21.2 |  0.37
Kspace  | 1622.3     | 3649       | 6519.1     |2139.7 | 12.53
Neigh   | 358.04     | 359.36     | 360.98     |   4.8 |  1.23
Comm    | 589.4      | 599.21     | 608.37     |  19.9 |  2.06
Output  | 0.60135    | 0.60512    | 0.68669    |   2.2 |  0.00
Modify  | 136.93     | 153.06     | 182.2      | 119.0 |  0.53
Other   |            | 57.57      |            |       |  0.20

Nlocal:    373.875 ave 392 max 346 min
Histogram: 2 0 0 3 2 4 6 0 3 4
Nghost:    10700.3 ave 10755 max 10631 min
Histogram: 1 2 0 3 4 5 3 1 1 4
Neighs:    324474 ave 362634 max 282182 min
Histogram: 2 1 3 3 3 3 4 0 2 3

Total # of neighbors = 7787375
Ave neighs/atom = 867.867
Ave special neighs/atom = 2.45938
Neighbor list builds = 36003
Dangerous builds = 0

undump		npt
unfix		npt

# ****************  Now optimize at target TEMP2  ********************
# ****************  rdf  ********************

fix		1	all	npt	temp	${T2}	${T2}	0.1	iso	${Pre}	${Pre}	0.5
fix		1	all	npt	temp	373	${T2}	0.1	iso	${Pre}	${Pre}	0.5
fix		1	all	npt	temp	373	373	0.1	iso	${Pre}	${Pre}	0.5
fix		1	all	npt	temp	373	373	0.1	iso	1	${Pre}	0.5
fix		1	all	npt	temp	373	373	0.1	iso	1	1	0.5

dump		1	all	custom	500000	coldoptimize.dump	id	type	x	y	z
dump_modify	1	sort	id

thermo_style 	custom	step	temp	lx	ly	lz	vol	press	pe	ke	etotal
thermo		5000

restart	1000000    coldoptimize.restart

run		2000000
PPPM initialization ...
  using 12-bit tables for long-range coulomb (../kspace.cpp:332)
  G vector (1/distance) = 0.186974
  grid = 20 20 20
  stencil order = 5
  estimated absolute RMS force accuracy = 0.000755965
  estimated relative force accuracy = 5.24988e-05
  using single precision MKL FFT
  3d grid and FFT values/proc = 1950 400
Per MPI rank memory allocation (min/avg/max) = 13.65 | 13.66 | 13.67 Mbytes
Step Temp Lx Ly Lz Volume Press PotEng KinEng TotEng 
 2000000    780.10784    48.067936    48.067936    46.022228    106335.58    1355.3867   -3060.7209    904.70824   -2156.0127 
 2005000    373.23778     46.52871     46.52871    44.548509    96443.997    793.28137   -3688.5071    432.85208    -3255.655 
 2010000    373.03917    46.418138    46.418138    44.442644    95758.057   -478.98085   -3717.6117    432.62175     -3284.99 
 2015000    376.36891     46.24856     46.24856    44.280282     94712.39    1161.7095   -3727.5844    436.48332   -3291.1011 
 2020000    374.97302     46.20692     46.20692    44.240414    94456.801     288.9027   -3736.9578    434.86447   -3302.0934 
 2025000    374.71566    46.260023    46.260023    44.291257    94782.833    306.78474   -3743.4925    434.56601   -3308.9265 
 2030000    371.92597     46.21586     46.21586    44.248973    94511.634   -182.57343   -3743.0731    431.33073   -3311.7424 
 2035000     368.5627    46.215765    46.215765    44.248883    94511.055    1178.0997   -3743.3746    427.43028   -3315.9443 
 2040000    375.63229    46.210554    46.210554    44.243894     94479.09   -647.90171   -3745.7936    435.62904   -3310.1646 
 2045000    378.66279    46.179886    46.179886    44.214531    94291.109   -290.13296   -3752.7677    439.14358   -3313.6241 
 2050000    370.48526     46.07808     46.07808    44.117057     93668.87    232.87609   -3757.9897    429.65992   -3328.3297 
 2055000    370.93666    46.090271    46.090271     44.12873    93743.239   -705.18355   -3766.2807    430.18341   -3336.0972 
 2060000    371.61941    46.074017    46.074017    44.113167    93644.095   -418.17287   -3765.8915    430.97522   -3334.9163 
 2065000    371.94842    46.019328    46.019328    44.060806    93311.028    1071.3774   -3759.9551    431.35677   -3328.5983 
 2070000    370.82967    46.075758    46.075758    44.114835    93654.714   -179.26324   -3768.5493    430.05933   -3338.4899 
 2075000    372.46529    46.107876    46.107876    44.145585    93850.698   -926.78357   -3764.3763     431.9562   -3332.4201 
 2080000    374.56014    46.080171    46.080171     44.11906    93681.625    57.421687   -3758.5701    434.38565   -3324.1845 
 2085000    375.00019    46.088336    46.088336    44.126877    93731.434    602.67227   -3761.7253    434.89598   -3326.8293 
 2090000    370.28984      46.0869      46.0869    44.125502    93722.668   -592.41859   -3765.4907    429.43328   -3336.0574 
 2095000    372.75186    46.068552    46.068552    44.107935    93610.777    16.336965   -3767.2171    432.28854   -3334.9286 
 2100000    373.97889    46.072684    46.072684    44.111891    93635.966    897.11774   -3764.4962    433.71155   -3330.7847 
 2105000    373.64033    46.055803    46.055803    44.095729    93533.083   -503.35902   -3767.5268    433.31892   -3334.2078 
 2110000    373.40349    46.005682    46.005682     44.04774    93228.044    1187.9116   -3770.5906    433.04425   -3337.5464 
 2115000    380.73213    46.013101    46.013101    44.054844    93273.159   -113.40214    -3764.891    441.54343   -3323.3476 
 2120000    374.72796    46.037509    46.037509    44.078213    93421.668    284.50569   -3763.1314    434.58027   -3328.5511 
 2125000    378.00227    46.016255    46.016255    44.057864    93292.341    -129.8476   -3773.6581    438.37756   -3335.2805 
 2130000    379.70042     45.97527     45.97527    44.018623    93043.281   -115.52224   -3781.0408    440.34693   -3340.6939 
 2135000    375.15344    46.021679    46.021679    44.063057    93325.331   -68.231255   -3775.6547    435.07371    -3340.581 
 2140000    371.37937    46.050323    46.050323    44.090482    93499.698   -897.14165   -3767.2797    430.69683   -3336.5829 
 2145000    371.12183    46.060465    46.060465    44.100192    93561.486   -1581.7461   -3775.6695    430.39816   -3345.2713 
 2150000    366.60836    45.940297    45.940297    43.985138    92831.112    264.09514   -3775.0101    425.16379   -3349.8463 
 2155000    372.45377    45.966733    45.966733    44.010449    92991.462    511.11599   -3782.2639    431.94284   -3350.3211 
 2160000    371.81154    46.002058    46.002058    44.044271    93206.019     1245.463   -3778.3484    431.19803   -3347.1504 
 2165000    372.96702    46.003243    46.003243    44.045405    93213.217   -194.51113   -3772.3414    432.53807   -3339.8033 
 2170000    374.50895    46.029223    46.029223     44.07028    93371.235   -1712.4705   -3775.2273    434.32628    -3340.901 
 2175000    371.94479    45.998646    45.998646    44.041004    93185.277   -239.52885   -3760.1455    431.35256    -3328.793 
 2180000    373.77685    46.025378    46.025378    44.066599    93347.838   -75.990856   -3775.0106    433.47725   -3341.5333 
 2185000     371.7655    46.023517    46.023517    44.064816    93336.512   -41.293087   -3777.6894    431.14464   -3346.5448 
 2190000     371.3207    46.003512    46.003512    44.045663    93214.853    105.66791   -3776.1083    430.62879   -3345.4795 
 2195000    372.79702    45.993233    45.993233    44.035822    93152.386   -121.40646   -3776.3701    432.34091   -3344.0292 
 2200000    377.13728    45.945793    45.945793    43.990401    92864.438    1401.9364   -3784.3911    437.37441   -3347.0167 
 2205000    370.34948    45.995823    45.995823    44.038301    93168.122   -159.40747   -3775.2192    429.50244   -3345.7168 
 2210000    381.32694     46.01711     46.01711    44.058683    93297.541    360.49339   -3771.3313    442.23325    -3329.098 
 2215000    376.09772    46.049843    46.049843    44.090022    93496.774   -321.45224   -3770.2134    436.16881   -3334.0446 
 2220000    375.49175    46.067341    46.067341    44.106776    93603.395   -862.88971   -3768.8017    435.46605   -3333.3357 
 2225000    375.64983    46.061384    46.061384    44.101073    93567.091   -415.90363   -3768.1598    435.64938   -3332.5105 
 2230000    374.67076    45.966096    45.966096     44.00984    92987.599     1575.244   -3779.5994    434.51393   -3345.0855 
 2235000    371.17267    45.969552    45.969552    44.013148    93008.573    913.45239   -3773.9451    430.45712    -3343.488 
 2240000    373.63904    45.964668    45.964668    44.008472    92978.928   -220.74348   -3778.2393    433.31742   -3344.9219 
 2245000    368.80703    46.022719    46.022719    44.064053    93331.658    -242.1105   -3777.7649    427.71363   -3350.0512 
 2250000     371.1258    45.935651    45.935651    43.980691    92802.955    1264.6015   -3783.5804    430.40276   -3353.1776 
 2255000    374.15819    45.933371    45.933371    43.978507    92789.132   -53.652516     -3788.72     433.9195   -3354.8005 
 2260000    372.13569    45.915712    45.915712    43.961599    92682.155    238.17653   -3779.1281    431.57396   -3347.5541 
 2265000    380.89567    45.968355    45.968355    44.012002    93001.308    111.59111   -3773.0952    441.73309   -3331.3621 
 2270000    376.01733    45.944428    45.944428    43.989094    92856.158    753.24426   -3781.2048    436.07558   -3345.1292 
 2275000    381.76716     45.94744     45.94744    43.991977    92874.422     933.0778   -3780.4003    442.74378   -3337.6565 
 2280000    370.14198    46.006643    46.006643    44.048661    93233.891   -508.22801   -3776.1733     429.2618   -3346.9115 
 2285000    373.16554    46.004658    46.004658     44.04676    93221.819   -1142.1104   -3779.9251     432.7683   -3347.1568 
 2290000    371.21532    45.979551    45.979551    44.022722     93069.28    -236.7865   -3771.9661    430.50658   -3341.4595 
 2295000    373.55677    46.022856    46.022856    44.064184    93332.493   -585.01851   -3775.2363    433.22201   -3342.0143 
 2300000    379.01421    46.008428    46.008428     44.05037    93244.743   -106.74113   -3779.3081    439.55112   -3339.7569 
 2305000    372.20311    45.958318    45.958318    44.002392    92940.401    841.81986   -3783.6131    431.65214    -3351.961 
 2310000    372.97627    45.972781    45.972781     44.01624    93028.171    202.68492   -3782.9624    432.54879   -3350.4136 
 2315000    380.36738    46.029724    46.029724    44.070759     93374.28   -412.91818   -3777.1792    441.12043   -3336.0588 
 2320000    370.81343     45.92375     45.92375    43.969296    92730.842    1439.3324   -3786.2444     430.0405   -3356.2039 
 2325000    372.30775    45.943009    45.943009    43.987735    92847.557    540.91929   -3778.0653    431.77349   -3346.2918 
 2330000    371.70681    45.995679    45.995679    44.038164    93167.251    608.88014   -3775.3883    431.07658   -3344.3117 
 2335000    373.09671       45.966       45.966    44.009747    92987.013   -1027.8377   -3778.2437    432.68847   -3345.5553 
 2340000    371.07444    46.007513    46.007513    44.049494    93239.181    -869.6186   -3778.0729     430.3432   -3347.7297 
 2345000    376.83912    45.966361    45.966361    44.010094    92989.208   -766.95136   -3786.5325    437.02862   -3349.5039 
 2350000    376.52489    45.928088    45.928088    43.973449    92757.122   -24.632567    -3777.809    436.66421   -3341.1448 
 2355000    376.39707    45.947469    45.947469    43.992005    92874.599    142.65457   -3783.4225    436.51597   -3346.9066 
 2360000    372.35661    45.943802    45.943802    43.988494    92852.361   -628.15671     -3783.36    431.83016   -3351.5299 
 2365000     375.1394     45.99967     45.99967    44.041985    93191.502   -276.70821   -3788.3189    435.05743   -3353.2615 
 2370000    372.06292    45.984084    45.984084    44.027062    93096.807   -798.99035   -3783.9719    431.48956   -3352.4823 
 2375000    378.26236    46.016216    46.016216    44.057827    93292.104   -843.64688   -3782.7598    438.67919   -3344.0806 
 2380000    375.13581    45.929971    45.929971    43.975252    92768.534    685.61015   -3784.5236    435.05326   -3349.4704 
 2385000    370.70254    45.979347    45.979347    44.022527     93068.04     377.1096   -3781.7054     429.9119   -3351.7936 
 2390000    376.33153    45.922949    45.922949    43.968528    92725.986   -125.87142   -3793.1079    436.43996   -3356.6679 
 2395000    376.32051     45.96024     45.96024    44.004233    92952.063    -270.5157   -3776.6754    436.42719   -3340.2482 
 2400000    376.62375    45.923688    45.923688    43.969236    92730.464    7.0520867   -3787.3628    436.77885   -3350.5839 
 2405000    375.11067    45.950655    45.950655    43.995055    92893.916    524.88352   -3785.2025    435.02411   -3350.1783 
 2410000    370.65007    45.917681    45.917681    43.963485     92694.08    634.96806     -3785.07    429.85104    -3355.219 
 2415000    374.47929    45.948953    45.948953    43.993426    92883.595       7.1275   -3780.1087    434.29188   -3345.8168 
 2420000    372.11542     45.92295     45.92295     43.96853    92725.997    216.39044   -3789.3254    431.55045   -3357.7749 
 2425000    371.37629    45.938555    45.938555    43.983471    92820.553    330.16267   -3784.6579    430.69327   -3353.9647 
 2430000     372.7472    45.974442    45.974442     44.01783    93038.257      215.415   -3784.4086    432.28314   -3352.1255 
 2435000    373.60091    45.980214    45.980214    44.023356    93073.303    227.02039   -3781.4851     433.2732   -3348.2119 
 2440000    369.19255    45.981574    45.981574    44.024659    93081.566   -1216.4807    -3781.146    428.16073   -3352.9853 
 2445000    378.66432    45.899913    45.899913    43.946473    92586.516    348.62818   -3789.6771    439.14535   -3350.5317 
 2450000    369.36703    45.903198    45.903198    43.949619      92606.4    475.96035    -3789.377    428.36308   -3361.0139 
 2455000    374.25965    45.917803    45.917803    43.963601    92694.818   -184.90874   -3784.7386    434.03716   -3350.7015 
 2460000     370.6108    45.940395    45.940395    43.985232    92831.706   -1606.7303   -3787.3028    429.80551   -3357.4973 
 2465000    371.22744    45.895521    45.895521    43.942268    92559.945    549.70375   -3791.4263    430.52064   -3360.9056 
 2470000    369.67608    45.880032    45.880032    43.927439    92466.264    1538.5733   -3786.6088    428.72149   -3357.8873 
 2475000    369.67653    45.914403    45.914403    43.960346    92674.229   -564.94641   -3791.2751    428.72202   -3362.5531 
 2480000    375.42796    45.893392    45.893392    43.940229     92547.06   -426.07863   -3788.2344    435.39208   -3352.8423 
 2485000    371.26456    45.923124    45.923124    43.968697     92727.05    265.24895   -3789.2196    430.56369    -3358.656 
 2490000    372.52456    45.922539    45.922539    43.968136    92723.507    164.39867    -3788.903    432.02494   -3356.8781 
 2495000    370.86595    45.937202    45.937202    43.982175    92812.354   -494.05514   -3788.2523     430.1014   -3358.1509 
 2500000    378.53609    45.942077    45.942077    43.986843    92841.904     10.01382   -3785.8303    438.99664   -3346.8337 
 2505000    378.76805    45.927269    45.927269    43.972665    92752.157   -345.99865   -3785.2534    439.26564   -3345.9878 
 2510000    370.87649    45.930138    45.930138    43.975412    92769.541   -859.79396   -3779.7422    430.11363   -3349.6286 
 2515000    373.13919    45.953449    45.953449     43.99773    92910.862   -241.38424   -3788.5626    432.73773   -3355.8248 
 2520000    371.01743    45.918478    45.918478    43.964248    92698.905   -301.36497   -3789.6078    430.27708   -3359.3307 
 2525000    368.26593    45.958105    45.958105    44.002189    92939.111    -582.7352   -3778.2026    427.08611   -3351.1165 
 2530000    378.22208    45.880342    45.880342    43.927735    92468.137    874.51949   -3791.2601    438.63248   -3352.6276 
 2535000    376.25598    45.899174    45.899174    43.945765    92582.044   -569.30311   -3794.4643    436.35235    -3358.112 
 2540000    370.60764    45.903682    45.903682    43.950081    92609.326   -268.42036   -3792.4625    429.80184   -3362.6606 
 2545000    376.61496    45.906795    45.906795    43.953062    92628.168   -362.44278   -3782.6069    436.76867   -3345.8383 
 2550000    375.37334    45.930198    45.930198    43.975469    92769.905    275.60681   -3784.5125    435.32873   -3349.1838 
 2555000    376.76568    45.976296    45.976296    44.019605    93049.512    1249.7065   -3781.8576    436.94346   -3344.9142 
 2560000    375.70205    45.939283    45.939283    43.984167    92824.966    87.763961   -3787.1875    435.70994   -3351.4776 
 2565000    370.96998    45.906108    45.906108    43.952405    92624.012    680.26229   -3791.3921    430.22205   -3361.1701 
 2570000    379.84376    45.994822    45.994822    44.037343    93162.041   -1510.5618   -3788.9779    440.51317   -3348.4648 
 2575000    372.25061    45.961514    45.961514    44.005453    92959.795     472.5375   -3780.1165    431.70723   -3348.4093 
 2580000    373.89532    45.962253    45.962253     44.00616    92964.277   -519.36671   -3791.3628    433.61464   -3357.7482 
 2585000    368.12217     45.93289     45.93289    43.978046    92786.216    1017.8515   -3787.5093    426.91939   -3360.5899 
 2590000    375.15875    45.894845    45.894845    43.941621    92555.851   -1276.0381   -3802.2486    435.07986   -3367.1688 
 2595000    371.17444     46.01047     46.01047    44.052325    93257.157   -1002.2089   -3793.1706    430.45918   -3362.7114 
 2600000    368.33224    45.881984    45.881984    43.929307    92478.063   -114.09076   -3793.4194    427.16301   -3366.2564 
 2605000    369.05944    45.947042    45.947042    43.991596    92872.008     344.0119   -3784.9237    428.00636   -3356.9174 
 2610000    374.64587    45.948726    45.948726    43.993209    92882.221   -695.11062   -3791.0386    434.48507   -3356.5536 
 2615000    375.68075    45.964758    45.964758    44.008559    92979.478   -157.55745   -3786.5178    435.68524   -3350.8326 
 2620000    376.68442    45.918693    45.918693    43.964454     92700.21   -563.67472   -3788.6298    436.84922   -3351.7806 
 2625000    372.89241    45.926103    45.926103    43.971549    92745.097     1165.429   -3786.8694    432.45154   -3354.4179 
 2630000    368.76058    45.972344    45.972344    44.015822     93025.52    785.72227   -3793.0961    427.65976   -3365.4364 
 2635000    376.17679    45.934772    45.934772    43.979849    92797.627   -530.11757    -3795.541    436.26051   -3359.2805 
 2640000    375.73205    45.902747    45.902747    43.949186    92603.666    135.12909   -3788.4792    435.74473   -3352.7344 
 2645000    368.06753    45.919203    45.919203    43.964942    92703.301    310.41398   -3792.1561    426.85602   -3365.3001 
 2650000    376.59472    45.942272    45.942272    43.987029    92843.085    621.77237    -3791.293    436.74519   -3354.5478 
 2655000    374.34368    46.006928    46.006928    44.048934    93235.622   -1221.8217   -3793.4283    434.13461   -3359.2937 
 2660000    369.82311    45.976932    45.976932    44.020214    93053.376    580.30678   -3795.2942      428.892   -3366.4022 
 2665000    368.58665    45.939245    45.939245    43.984131    92824.735    124.31356    -3797.164    427.45806   -3369.7059 
 2670000    367.99932    45.947281    45.947281    43.991825    92873.459    1742.9907    -3787.434    426.77691   -3360.6571 
 2675000     369.4864    45.947206    45.947206    43.991753    92873.002   -196.25709   -3792.8045    428.50151    -3364.303 
 2680000    370.93433    45.942211    45.942211    43.986971    92842.718   -3.9652773   -3796.7145    430.18072   -3366.5338 
 2685000    376.47893    45.950753    45.950753     43.99515    92894.514    420.78855   -3792.3714    436.61091   -3355.7605 
 2690000     373.9672    45.914601    45.914601    43.960536    92675.431   -58.783972   -3801.4139      433.698   -3367.7159 
 2695000    367.48882    45.997932    45.997932     44.04032    93180.939   -697.55943   -3791.1425    426.18488   -3364.9576 
 2700000    374.17636    45.955027    45.955027    43.999241    92920.435   -987.42817   -3792.7484    433.94056   -3358.8079 
 2705000    376.44195    46.018984    46.018984    44.060477    93308.939   -436.00152   -3784.3905    436.56801   -3347.8225 
 2710000    372.32532    45.908094    45.908094    43.954306    92636.036    641.70951   -3795.3129    431.79387    -3363.519 
 2715000    375.59217    45.957423    45.957423    44.001536    92934.974    155.04704   -3801.5411    435.58251   -3365.9586 
 2720000    366.84215    45.997531    45.997531    44.039937    93178.503   -424.64832   -3788.7772    425.43492   -3363.3423 
 2725000    366.76025      45.9623      45.9623    44.006205    92964.563    59.072295   -3792.1249    425.33994   -3366.7849 
 2730000    373.36176    45.984629    45.984629    44.027584    93100.118      320.472   -3794.9857    432.99586   -3361.9898 
 2735000    370.89019    46.015783    46.015783    44.057412     93289.47    167.85056   -3792.0886    430.12952   -3361.9591 
 2740000    375.40861    45.960284    45.960284    44.004275    92952.331   -1727.8944   -3790.5958    435.36964   -3355.2262 
 2745000    375.14514    45.978265    45.978265     44.02149    93061.468   -232.41021   -3793.2969    435.06408   -3358.2328 
 2750000    370.51218    46.002712    46.002712    44.044897    93209.991   -798.04036    -3794.655    429.69113   -3364.9639 
 2755000    370.86923    45.943766    45.943766     43.98846    92852.147    432.07456   -3800.6254    430.10521   -3370.5201 
 2760000    370.55541    45.958378    45.958378     44.00245    92940.766   -14.216153   -3791.6598    429.74126   -3361.9185 
 2765000    374.01181    45.952923    45.952923    43.997227    92907.676   -231.24852   -3793.7378    433.74974   -3359.9881 
 2770000    371.21187    45.968926    45.968926    44.012549    93004.773   -1386.9254   -3789.4003    430.50258   -3358.8977 
 2775000    369.43848    45.980256    45.980256    44.023397    93073.557   -929.67105    -3789.795    428.44594   -3361.3491 
 2780000     373.8454    45.975981    45.975981    44.019303    93047.598   -1310.0461   -3794.7394    433.55675   -3361.1827 
 2785000    366.19398    46.003187    46.003187    44.045352    93212.881    242.41212    -3790.358    424.68322   -3365.6747 
 2790000    371.31354    45.939583    45.939583    43.984455    92826.788   -299.28468   -3798.4767    430.62049   -3367.8563 
 2795000    369.81767    46.012642    46.012642    44.054405    93270.368   -1219.2588   -3789.5417    428.88569    -3360.656 
 2800000    371.11502    45.931457    45.931457    43.976675    92777.535    697.16273   -3803.4549    430.39026   -3373.0646 
 2805000    374.74657    45.947606    45.947606    43.992136    92875.426   -767.28172    -3787.268    434.60185   -3352.6662 
 2810000    372.97056    45.952705    45.952705    43.997018    92906.349    315.51624   -3793.2831    432.54218   -3360.7409 
 2815000    373.00327     45.95119     45.95119    43.995568    92897.164    781.51227   -3793.3785    432.58011   -3360.7984 
 2820000    373.72622    45.951522    45.951522    43.995886    92899.179    138.95149   -3786.5216    433.41852   -3353.1031 
 2825000    372.29166    46.001643    46.001643    44.043874    93203.494   -305.89788   -3790.0831    431.75484   -3358.3282 
 2830000    375.06928    45.963067    45.963067     44.00694    92969.217    578.73493   -3783.2067    434.97611   -3348.2306 
 2835000    371.63055    45.966166    45.966166    44.009906    92988.019   -329.85112   -3793.4354    430.98813   -3362.4473 
 2840000    374.40247    45.985694    45.985694    44.028604    93106.587   -1771.8018   -3792.6146    434.20279   -3358.4118 
 2845000     369.1973    45.931945    45.931945    43.977142    92780.494    1137.7973   -3794.2766    428.16624   -3366.1104 
 2850000    376.14056     46.00752     46.00752      44.0495     93239.22    30.900424   -3797.8315    436.21849    -3361.613 
 2855000    369.93956     45.99907     45.99907     44.04141    93187.853    -1776.369   -3794.8322    429.02706   -3365.8052 
 2860000    376.01661    46.009028    46.009028    44.050944    93248.387   -160.64635   -3793.2032    436.07474   -3357.1285 
 2865000    377.20365    45.925952    45.925952    43.971404    92744.182    580.57128   -3795.0864    437.45138    -3357.635 
[...]
 7300000    576.30984    46.944725    46.944725    44.946819    99054.125    632.84343   -3421.3193    668.35921     -2752.96 
 7305000    569.92495    46.984688    46.984688    44.985081    99307.305     234.8734    -3419.598    660.95452   -2758.6434 
 7310000    582.33347     47.01658     47.01658    45.015616    99509.663    -426.1477   -3427.7147    675.34495   -2752.3698 
 7315000    576.17347    47.031153    47.031153    45.029569    99602.224   -1501.3738   -3408.4513    668.20107   -2740.2502 
 7320000    577.70391    46.922748    46.922748    44.925778    98915.074   -1084.2333   -3434.3063    669.97594   -2764.3304 
 7325000    583.96518    46.959659    46.959659    44.961118    99148.688   -1044.7567   -3428.3833    677.23728    -2751.146 
 7330000     571.4402    46.911577    46.911577    44.915082    98844.444    1275.4127    -3437.937    662.71179   -2775.2252 
 7335000    573.53919    47.003332    47.003332    45.002932    99425.574    866.87292   -3429.7118    665.14603   -2764.5657 
 7340000    568.01833     46.90205     46.90205     44.90596    98784.233   -1252.3381   -3424.5648    658.74336   -2765.8215 
 7345000    568.30954    46.993984    46.993984    44.993981     99366.26    -876.7415   -3425.0451    659.08108    -2765.964 
 7350000    569.75907    46.949272    46.949272    44.951173     99082.91    318.89234   -3423.7464    660.76215   -2762.9843 
 7355000    568.88007     47.03799     47.03799    45.036115     99645.67   -301.73793   -3413.8459    659.74274   -2754.1032 
 7360000    568.21131    46.911816    46.911816    44.915311    98845.955   -300.87716   -3436.6884    658.96717   -2777.7212 
 7365000    577.57053    46.910243    46.910243    44.913805    98836.014    1650.5388   -3429.4442    669.82127   -2759.6229 
 7370000     573.1437     46.93556     46.93556    44.938044    98996.119    651.82469   -3423.1093    664.68736    -2758.422 
 7375000    568.65439    46.968286    46.968286    44.969378    99203.343    432.97316   -3424.6203    659.48102   -2765.1393 
 7380000    566.33436    47.020595    47.020595    45.019461    99535.163   -403.81517   -3428.8458    656.79043   -2772.0554 
 7385000    574.69616    46.886529    46.886529      44.8911    98686.198    1303.3267   -3430.7315     666.4878   -2764.2437 
 7390000    565.82976      46.9431      46.9431    44.945264    99043.841   -894.26179    -3425.912    656.20524   -2769.7068 
 7395000    581.81084    46.956336    46.956336    44.957936    99127.638    68.104943    -3428.321    674.73884   -2753.5822 
 7400000    571.35906    46.937686    46.937686    44.940079    99009.571    639.73758   -3438.9208    662.61768   -2776.3031 
 7405000    574.79271    46.959408    46.959408    44.960878      99147.1   -182.41532    -3431.693    666.59976   -2765.0932 
 7410000    567.41292    46.889848    46.889848    44.894278    98707.156    1052.7211   -3436.7247    658.04126   -2778.6835 
 7415000    568.40747    47.015674    47.015674    45.014749    99503.916   -1843.1914    -3418.415    659.19466   -2759.2204 
 7420000    576.01307    46.863276    46.863276    44.868837    98539.445    1060.5456   -3415.1745    668.01505   -2747.1595 
 7425000    571.59883    46.872317    46.872317    44.877493    98596.483    838.20912   -3428.0622    662.89575   -2765.1664 
 7430000    568.33057    46.974638    46.974638     44.97546    99243.599   -474.05083   -3419.4141    659.10548   -2760.3086 
 7435000    580.50916    47.006265    47.006265    45.005741    99444.189   -371.98742   -3419.8252    673.22926    -2746.596 
 7440000    572.40014    46.930248    46.930248    44.932958     98962.51   -711.37701   -3426.1245    663.82505   -2762.2995 
 7445000    573.12701    46.926523    46.926523    44.929392     98938.95    1439.7098   -3425.7683    664.66801   -2761.1003 
 7450000    574.01708    47.061406    47.061406    45.058534    99794.557   -823.36057    -3429.158    665.70025   -2763.4577 
 7455000    571.37825    46.971989    46.971989    44.972923    99226.807    384.09634   -3438.5852    662.63994   -2775.9453 
 7460000    559.80576      46.9275      46.9275    44.930327    98945.127     3.516668   -3435.6589    649.21907   -2786.4398 
 7465000    565.86014    46.891432    46.891432    44.895795    98717.161    1620.7311   -3437.6058    656.24046   -2781.3654 
 7470000    575.30383    46.952624    46.952624    44.954382    99104.134   -885.33812    -3432.073    667.19252   -2764.8805 
 7475000    569.47024    46.959899    46.959899    44.961348    99150.209    76.168615   -3424.5054    660.42718   -2764.0782 
 7480000    575.40336    47.048641    47.048641    45.046313    99713.375    1494.6606   -3429.1622    667.30795   -2761.8543 
 7485000    565.64059    46.994689    46.994689    44.994657    99370.737   -629.03892   -3423.0366    655.98585   -2767.0508 
 7490000    577.89518     46.89872     46.89872    44.902772    98763.195    223.17299   -3435.8681    670.19777   -2765.6704 
 7495000    575.43789    46.972299    46.972299    44.973219    99228.769    128.89268   -3418.8307    667.34799   -2751.4827 
 7500000    571.37104    46.984265    46.984265    44.984677    99304.626    1024.3002    -3427.932    662.63158   -2765.3004 
 7505000    571.99422    46.821981    46.821981    44.829299    98279.177    695.40772    -3436.156    663.35429   -2772.8017 
 7510000    572.72654    46.962428    46.962428    44.963769     99166.23   -912.79007   -3424.9498    664.20358   -2760.7462 
 7515000    572.58638    46.907369    46.907369    44.911053    98817.846      -672.37   -3440.0925    664.04103   -2776.0515 
 7520000    579.65317    46.959283    46.959283    44.960758    99146.309   -2408.9098   -3426.1534    672.23655   -2753.9168 
 7525000    566.81475    47.039587    47.039587    45.037644    99655.821    76.903027   -3422.4771    657.34755   -2765.1296 
 7530000    560.21893     46.91093     46.91093    44.914463    98840.356    266.46266   -3430.5069    649.69823   -2780.8086 
 7535000     578.7752    46.983824    46.983824    44.984254    99301.826   -183.54381   -3421.7928    671.21835   -2750.5745 
 7540000    573.12656    46.986782    46.986782    44.987086    99320.585   -715.91673   -3429.4519    664.66749   -2764.7844 
 7545000    577.61473    46.998413    46.998413    44.998223    99394.361     323.4751   -3429.1632    669.87252   -2759.2907 
 7550000    568.04889     46.95232     46.95232    44.954091    99102.209   -1000.4244   -3417.8145    658.77881   -2759.0357 
 7555000     569.6336    46.963679    46.963679    44.964966    99174.149   -1433.2113   -3417.9313    660.61663   -2757.3146 
 7560000    570.78807    47.010115    47.010115    45.009426     99468.62   -771.44199   -3424.6363     661.9555   -2762.6808 
 7565000    576.97326    46.931833    46.931833    44.934476    98972.541   -356.11208    -3437.221    669.12859   -2768.0924 
 7570000    575.99881    46.939336    46.939336     44.94166    99020.019   -527.48422    -3440.686     667.9985   -2772.6875 
 7575000    568.63793    46.848404    46.848404    44.854597    98445.655    637.25562   -3440.6247    659.46193   -2781.1628 
 7580000    572.84464    46.834075    46.834075    44.840878    98355.352     712.9494   -3438.9206    664.34055   -2774.5801 
 7585000    567.27073    46.907353    46.907353    44.911038    98817.744    -1898.362   -3443.3857    657.87636   -2785.5094 
 7590000    577.90684    46.859946    46.859946    44.865649    98518.439    309.18353   -3431.6559    670.21129   -2761.4446 
 7595000    571.97191    46.944042    46.944042    44.946166    99049.802   -71.954553   -3433.2071    663.32841   -2769.8787 
 7600000    567.16084    46.970828    46.970828    44.971811    99219.447   -949.19264   -3442.0171    657.74892   -2784.2681 
 7605000    578.63347    46.901889    46.901889    44.905806    98783.218    932.93783   -3424.5153    671.05398   -2753.4613 
 7610000    575.13196    46.925928    46.925928    44.928822    98935.185   -790.32075    -3431.789    666.99319   -2764.7958 
 7615000    567.21883    46.961152    46.961152    44.962547    99158.143    69.199025    -3436.683    657.81616   -2778.8668 
 7620000    570.96247    46.897771    46.897771    44.901864    98757.201   -5.6585535   -3429.7072    662.15775   -2767.5495 
 7625000    577.29661     46.88773     46.88773     44.89225    98693.781   -364.88755   -3434.2203    669.50359   -2764.7167 
 7630000     560.9411    46.930231    46.930231    44.932942    98962.405   -2419.5557   -3426.7796    650.53575   -2776.2439 
 7635000    572.60711    46.882077    46.882077    44.886837    98658.086   -113.85429   -3431.2181    664.06508    -2767.153 
 7640000    575.05783    46.923161    46.923161    44.926173    98917.684    698.48733    -3436.031    666.90723   -2769.1238 
 7645000     575.5284    46.829333    46.829333    44.836338    98325.482    1946.5846   -3422.1011    667.45296   -2754.6481 
 7650000    569.30294     46.93809     46.93809    44.940467    99012.131   -1402.8293   -3425.6868    660.23316   -2765.4536 
 7655000    571.24652     46.95265     46.95265    44.954407    99104.295   -956.59088   -3429.4394    662.48717   -2766.9522 
 7660000    573.40814    46.954248    46.954248    44.955937     99114.42   -33.533378   -3434.5044    664.99405   -2769.5103 
 7665000    574.92382    46.791299    46.791299    44.799923      98086.1    1327.7573   -3437.9566    666.75181   -2771.2048 
 7670000    573.42338    46.990958    46.990958    44.991085    99347.069   -1987.4071    -3419.558    665.01172   -2754.5463 
 7675000    577.49411    46.939982    46.939982    44.942278    99024.106    1390.9191   -3432.1598    669.73264   -2762.4272 
 7680000    566.17441    46.851209    46.851209    44.857283    98463.343   -524.20607   -3432.8452    656.60493   -2776.2402 
 7685000    575.86725    46.987292    46.987292    44.987575    99323.822   -696.19622   -3427.5754    667.84594   -2759.7295 
 7690000    582.30953    46.821938    46.821938    44.829258    98278.908    158.06883   -3439.7844    675.31719   -2764.4672 
 7695000    580.94416    46.864746    46.864746    44.870244    98548.713    369.91585   -3425.2036    673.73373   -2751.4699 
 7700000    567.61591    46.838957    46.838957    44.845553    98386.115   -736.00945   -3427.1038    658.27667   -2768.8271 
 7705000     576.3768    46.847141    46.847141    44.853388    98437.696    514.49794   -3433.7898    668.43686    -2765.353 
 7710000    570.71499    46.866426    46.866426    44.871853    98559.317    921.82725   -3434.7511    661.87074   -2772.8804 
 7715000     576.5024     46.94039     46.94039    44.942669    99026.684   -559.06002    -3429.419    668.58253   -2760.8364 
 7720000    572.36852    46.911454    46.911454    44.914965    98843.668    33.986808   -3426.2178    663.78837   -2762.4294 
 7725000    568.79026    46.869761    46.869761    44.875045    98580.354   -659.56051   -3434.4389    659.63859   -2774.8003 
 7730000    566.50352    46.981237    46.981237    44.981777    99285.426   -351.06432    -3425.062    656.98661   -2768.0754 
 7735000    564.09302    46.908924    46.908924    44.912541    98827.672    1158.3301   -3430.1532     654.1911   -2775.9621 
 7740000    581.56789     46.87113     46.87113    44.876357    98588.997   -216.11491   -3430.5574    674.45709   -2756.1003 
 7745000    577.31716    46.949584    46.949584    44.951472    99084.887    571.63122   -3431.2832    669.52742   -2761.7558 
 7750000    578.15907    46.930706    46.930706    44.933397    98965.408    12.864723   -3439.8918    670.50381    -2769.388 
 7755000    569.56994    46.912477    46.912477    44.915944    98850.136   -113.19592   -3425.5895    660.54281   -2765.0467 
 7760000    579.17474    46.949755    46.949755    44.951635    99085.969    23.223078   -3433.0114     671.6817   -2761.3297 
 7765000    574.81531    46.936077    46.936077    44.938539    98999.392   -855.96917   -3426.4185    666.62597   -2759.7926 
 7770000    573.54138    47.025194    47.025194    45.023864    99564.371   -685.47404   -3432.7866    665.14857    -2767.638 
 7775000    572.89754    46.869243    46.869243     44.87455    98577.086    485.02267    -3432.073    664.40189   -2767.6711 
 7780000    572.50428    46.990096    46.990096    44.990259    99341.602   -710.98873   -3426.9631    663.94582   -2763.0173 
 7785000    569.81204    46.917243    46.917243    44.920506    98880.261    1493.7259   -3431.8425    660.82357    -2771.019 
 7790000    576.08825     46.87697     46.87697    44.881948    98625.853    305.48967   -3435.4203    668.10223   -2767.3181 
 7795000    565.61205    46.883753    46.883753    44.888442    98668.669    -838.9792   -3438.9673    655.95275   -2783.0145 
 7800000    572.70712    46.934343    46.934343    44.936879    98988.422    238.19769   -3437.8372    664.18105   -2773.6561 
 7805000    572.53585    47.056896    47.056896    45.054216    99765.869     252.5895   -3421.4336    663.98243   -2757.4512 
 7810000    575.01051    46.955487    46.955487    44.957123    99122.265    910.07709   -3424.4893    666.85235   -2757.6369 
 7815000    577.25198    47.006587    47.006587    45.006048    99446.228    574.75555   -3428.3006    669.45183   -2758.8487 
 7820000    569.53337    47.052085    47.052085     45.04961    99735.272   -91.841031   -3427.0123    660.50039   -2766.5119 
 7825000    571.50145    46.909161    46.909161    44.912769    98829.175   -795.75192    -3426.996    662.78281   -2764.2132 
 7830000    571.00119    46.914215    46.914215    44.917608    98861.122   -570.41452   -3419.1205    662.20265   -2756.9178 
 7835000    575.19073    46.860066    46.860066    44.865764    98519.196    339.48841   -3429.9359    667.06136   -2762.8745 
 7840000    575.10804    46.930701    46.930701    44.933392     98965.38    412.98304   -3427.5913    666.96546   -2760.6259 
 7845000    576.87222    46.980131    46.980131    44.980719    99278.416   -674.64019   -3431.8476    669.01142   -2762.8362 
 7850000    568.99357    46.862017    46.862017    44.867631    98531.497    629.43715   -3422.8504    659.87437   -2762.9761 
 7855000    563.17342    46.896043    46.896043    44.900209    98746.284   -832.32767   -3425.0316    653.12462    -2771.907 
 7860000    570.12859    46.897459    46.897459    44.901565    98755.232   -26.679364   -3433.9075    661.19068   -2772.7168 
 7865000    569.00841     46.94486     46.94486    44.946949     99054.98   -182.94842   -3437.0602    659.89158   -2777.1686 
 7870000    579.96746    46.937023    46.937023    44.939446    99005.381    1606.3239   -3432.5377    672.60104   -2759.9367 
 7875000    574.17302    46.927944    46.927944    44.930752    98947.938     312.3976   -3428.2518    665.88109   -2762.3707 
 7880000    576.90083    46.903547    46.903547    44.907394    98793.694    1238.0349   -3437.8638     669.0446   -2768.8192 
 7885000    571.38814    46.944017    46.944017    44.946142    99049.644   -126.94304   -3431.0748    662.65141   -2768.4234 
 7890000    582.62513     46.94564     46.94564    44.947696    99059.918    296.89186   -3426.8521    675.68319   -2751.1689 
 7895000    574.82246    46.923132    46.923132    44.926145    98917.501    672.46533   -3432.3799    666.63426   -2765.7457 
 7900000    575.82358    46.969999    46.969999    44.971017    99214.193   -390.24534   -3415.8974    667.79529   -2748.1021 
 7905000    569.12706    46.916035    46.916035     44.91935    98872.626   -50.504181   -3422.7558    660.02918   -2762.7266 
 7910000     570.6011    46.924871    46.924871     44.92781    98928.498   -1587.3382    -3433.722    661.73866   -2771.9833 
 7915000    574.96231     47.00849     47.00849    45.007871     99458.31   -1312.5094   -3421.5936    666.79645   -2754.7971 
 7920000    578.31363    46.934081    46.934081    44.936628    98986.762   -1309.7355   -3424.3653    670.68306   -2753.6823 
 7925000    576.14538     46.86632     46.86632    44.871751    98558.648    371.13526   -3428.7134    668.16849   -2760.5449 
 7930000     575.9313    46.928317    46.928317     44.93111    98950.298   -496.42538   -3430.8173    667.92021   -2762.8971 
 7935000     569.8515    46.865522    46.865522    44.870987     98553.61   -782.30137   -3427.0123    660.86933    -2766.143 
 7940000    580.99137    46.894128    46.894128    44.898376    98734.189    848.08621   -3420.9236    673.78848   -2747.1351 
 7945000    574.80008    46.958168    46.958168     44.95969    99139.242    446.51489   -3417.9961    666.60831   -2751.3878 
 7950000    571.59539    46.968693    46.968693    44.969767     99205.92    1020.8027   -3426.8065    662.89177   -2763.9148 
 7955000     569.5645    46.962061    46.962061    44.963417    99163.902    591.22164   -3433.3323    660.53649   -2772.7958 
 7960000    578.19183    46.973189    46.973189    44.974072    99234.414    929.44109   -3423.4983     670.5418   -2752.9565 
 7965000    570.03662    46.882059    46.882059     44.88682    98657.974    362.98646   -3434.8661    661.08402    -2773.782 
 7970000    567.33321    46.900011    46.900011    44.904008    98771.353    1548.9053   -3442.0684    657.94882   -2784.1196 
 7975000    578.48576    46.923518    46.923518    44.926515    98919.944    1204.4753    -3430.984    670.88267   -2760.1013 
 7980000     576.4403    46.997516    46.997516    44.997364    99388.672    242.49555   -3424.1297    668.51051   -2755.6192 
 7985000    568.98411    46.960143    46.960143    44.961581    99151.754   -327.80689   -3408.5851     659.8634   -2748.7217 
 7990000    573.45406    47.013686    47.013686    45.012845    99491.291   -1041.4142   -3418.2822    665.04731   -2753.2348 
 7995000    571.37218    47.060263    47.060263     45.05744    99787.287   -1074.0125   -3416.5664     662.6329   -2753.9335 
 8000000    572.27695    46.970716    46.970716    44.971704    99218.738    366.27549   -3431.9795    663.68218   -2768.2973 
Loop time of 15447.7 on 24 procs for 1000000 steps with 8973 atoms

Performance: 2.797 ns/day, 8.582 hours/ns, 64.735 timesteps/s
99.9% CPU use with 24 MPI tasks x 1 OpenMP threads

MPI task timing breakdown:
Section |  min time  |  avg time  |  max time  |%varavg| %total
---------------------------------------------------------------
Pair    | 11354      | 12918      | 14133      | 610.9 | 83.62
Bond    | 53.516     | 54.729     | 58.525     |  14.7 |  0.35
Kspace  | 661.95     | 1877.9     | 3439       |1602.1 | 12.16
Neigh   | 147.72     | 148.28     | 148.93     |   3.2 |  0.96
Comm    | 307.19     | 312.46     | 316.98     |  13.8 |  2.02
Output  | 0.079993   | 0.082257   | 0.12422    |   3.1 |  0.00
Modify  | 97.187     | 105.42     | 119.89     |  72.6 |  0.68
Other   |            | 30.96      |            |       |  0.20

Nlocal:    373.875 ave 397 max 352 min
Histogram: 2 0 4 3 2 3 5 2 2 1
Nghost:    11249.6 ave 11277 max 11199 min
Histogram: 2 2 1 0 0 1 5 4 4 5
Neighs:    347733 ave 376250 max 306571 min
Histogram: 2 1 2 0 2 5 3 2 3 4

Total # of neighbors = 8345587
Ave neighs/atom = 930.078
Ave special neighs/atom = 2.45938
Neighbor list builds = 14392
Dangerous builds = 0

unfix	4

write_restart	hot.restart
PPPM initialization ...
  using 12-bit tables for long-range coulomb (../kspace.cpp:332)
  G vector (1/distance) = 0.188207
  grid = 20 20 20
  stencil order = 5
  estimated absolute RMS force accuracy = 0.000705107
  estimated relative force accuracy = 4.8967e-05
  using single precision MKL FFT
  3d grid and FFT values/proc = 1950 400

write_data	hot.data	nocoeff
PPPM initialization ...
  using 12-bit tables for long-range coulomb (../kspace.cpp:332)
  G vector (1/distance) = 0.188207
  grid = 20 20 20
  stencil order = 5
  estimated absolute RMS force accuracy = 0.000705107
  estimated relative force accuracy = 4.8967e-05
  using single precision MKL FFT
  3d grid and FFT values/proc = 1950 400
Total wall time: 38:07:52
