ITEM: TIMESTEP
0
ITEM: NUMBER OF ATOMS
8400
ITEM: BOX BOUNDS pp pp pp
-5.9099547646241319e+00 2.8359995476463484e+02
-2.1446273254920634e+00 4.0174627325491812e+01
-1.7757301867509554e+00 1.6325730186751606e+01
ITEM: ATOMS id type x y z f_TolTpA 
1 1 -3.99304 -1.09437 -0.233657 0 
2 1 -4.11307 1.72142 2.24152 0 
3 1 -0.970661 -1.43773 2.80313 0 
4 1 -1.2998 1.86925 -0.272372 0 
5 2 -1.16413 1.70722 2.28253 0 
6 2 -1.12584 -1.58607 -0.186912 0 
7 2 -4.29642 1.4566 -0.624278 0 
8 2 -3.85112 -1.12494 2.67161 0 
9 1 1.2594 -1.49206 -0.346524 0 
10 1 1.78243 1.24141 2.73024 0 
11 1 4.90678 -1.27447 2.70571 0 
12 1 4.39178 1.5433 -0.264244 0 
13 2 4.30317 1.05332 2.21581 0 
14 2 4.70821 -1.52531 -0.0361469 0 
15 2 1.23218 1.8468 -0.940946 0 
16 2 1.67707 -1.33987 2.49512 0 
17 1 7.39226 -0.843135 -0.670907 0 
18 1 7.5593 1.53503 2.74395 0 
19 1 10.2753 -1.2616 2.49528 0 
20 1 10.2941 1.67371 -0.382549 0 
21 2 10.3842 1.30294 2.96155 0 
22 2 10.3111 -1.53558 -0.712736 0 
23 2 7.59889 2.0491 -0.542306 0 
24 2 7.60425 -1.55943 2.37388 0 
25 1 13.116 -1.46566 -0.906488 0 
26 1 13.1245 1.56656 3.02149 0 
27 1 16.4089 -1.59439 3.18573 0 
28 1 15.4047 0.94928 0.168893 0 
29 2 15.8485 1.32157 3.17318 0 
30 2 16.2504 -1.56839 -0.242364 0 
31 2 12.745 1.18159 0.310767 0 
32 2 13.4891 -1.70566 2.71268 0 
33 1 19.2793 -1.21593 -0.338301 0 
34 1 19.2202 1.10183 2.81093 0 
35 1 21.8742 -1.7966 2.30462 0 
36 1 21.7666 1.57721 -0.86107 0 
37 2 22.0319 1.07308 2.0114 0 
38 2 21.8857 -2.11515 -0.486145 0 
39 2 18.6547 1.10445 -0.131075 0 
40 2 18.9339 -1.78807 3.14178 0 
41 1 24.5159 -1.63475 -0.758936 0 
42 1 24.6359 1.44963 2.36733 0 
43 1 27.4977 -1.43278 2.08404 0 
44 1 27.8569 1.41645 -0.951705 0 
45 2 27.8425 1.83912 1.80954 0 
46 2 27.3713 -1.39649 -0.483092 0 
47 2 24.9961 1.21299 -0.729102 0 
48 2 24.7645 -1.78841 2.51957 0 
49 1 30.5241 39.9814 -0.538285 0 
50 1 30.5507 1.38544 2.14422 0 
51 1 33.8184 -1.67418 2.26837 0 
52 1 33.5395 0.723167 -0.456898 0 
53 2 33.6967 1.91211 1.83531 0 
54 2 33.3915 -1.84777 -0.236822 0 
55 2 30.6961 1.10267 -0.510356 0 
56 2 31.0188 -1.65097 2.51539 0 
57 1 36.6074 -2.13775 -0.406592 0 
58 1 36.2904 1.73814 1.97586 0 
59 1 39.0213 -0.857913 2.08778 0 
60 1 39.5438 2.01687 -0.627672 0 
61 2 38.9111 1.72046 2.65405 0 
62 2 39.0891 -1.69884 -0.711014 0 
63 2 36.8845 2.17685 -0.772951 0 
64 2 36.442 -1.39775 2.28742 0 
65 1 41.8301 40.1091 -0.74217 0 
66 1 42.3221 2.35713 2.04174 0 
67 1 44.438 -0.852489 1.93782 0 
68 1 44.9233 2.298 -0.798457 0 
69 2 44.8634 2.27756 2.30164 0 
70 2 44.7095 -1.45531 -0.536067 0 
71 2 42.1303 2.08642 -0.906611 0 
72 2 41.7821 -1.1951 2.18076 0 
73 1 47.6549 -1.56945 -0.776545 0 
74 1 47.6128 1.60404 2.39002 0 
75 1 50.4216 -1.48301 2.82057 0 
76 1 50.1655 1.06705 0.0663366 0 
77 2 50.4987 1.75244 2.61136 0 
78 2 50.5933 -2.09133 -0.119468 0 
79 2 47.8812 1.81611 -0.458069 0 
80 2 47.9512 -1.32448 2.17716 0 
81 1 53.1714 -1.39977 -0.104632 0 
82 1 53.2336 1.74238 2.45303 0 
83 1 57.0013 -1.27535 2.63005 0 
84 1 56.2352 1.54671 -0.616766 0 
85 2 56.2597 2.10969 2.70383 0 
86 2 56.5066 -0.875875 -0.0332707 0 
87 2 53.202 1.41853 -0.248132 0 
88 2 53.4543 -1.18801 2.97526 0 
89 1 59.2331 -1.54855 -0.50468 0 
90 1 59.0858 1.75052 2.44009 0 
91 1 62.5575 40.1601 2.85606 0 
92 1 62.4047 2.19298 -0.401696 0 
93 2 62.2681 2.5721 2.27863 0 
94 2 62.2385 -1.32645 -0.673712 0 
95 2 58.7313 1.55312 -0.0851016 0 
96 2 59.3576 -0.860992 3.1807 0 
97 1 64.8121 -1.19847 -0.397247 0 
98 1 65.0802 1.91794 2.06881 0 
99 1 67.6587 -1.06325 2.93969 0 
100 1 68.2277 1.91033 -0.223187 0 
101 2 67.9927 1.91845 2.4195 0 
102 2 68.1564 -1.02198 -0.172523 0 
103 2 64.8762 1.85018 -0.46753 0 
104 2 64.9187 -0.982596 2.55622 0 
105 1 70.5677 -1.01341 -0.532243 0 
106 1 70.9383 1.66637 2.44408 0 
107 1 73.6708 -1.0603 2.54699 0 
108 1 73.5895 1.733 -0.726167 0 
109 2 73.4712 1.80816 2.15411 0 
110 2 73.4451 -1.13517 -0.417085 0 
111 2 70.7437 2.25891 -0.545811 0 
112 2 71.192 -1.08342 2.50983 0 
113 1 76.5269 -1.16795 -0.291248 0 
114 1 76.8909 1.95917 2.65067 0 
115 1 79.2642 -1.24613 2.46948 0 
116 1 80.0244 1.98652 -0.0585858 0 
117 2 79.6657 1.72387 3.12894 0 
118 2 79.6483 -1.69307 -0.554073 0 
119 2 76.4116 1.71402 -0.720045 0 
120 2 76.8173 -0.811902 2.6459 0 
121 1 83.181 -1.57161 -0.211155 0 
122 1 82.3775 1.71699 3.26163 0 
123 1 85.9746 -1.05223 3.03824 0 
124 1 85.4298 1.92569 -0.319633 0 
125 2 85.2946 2.01629 2.28692 0 
126 2 85.724 -1.28322 0.399715 0 
127 2 82.5926 2.18135 -0.598525 0 
128 2 82.5679 -1.09119 2.78447 0 
129 1 88.5376 -0.574677 -0.0651797 0 
130 1 87.9132 2.25766 2.72861 0 
131 1 91.2358 -1.18231 2.90505 0 
132 1 91.2516 1.87669 -0.112606 0 
133 2 90.9958 2.48407 2.62574 0 
134 2 91.0962 -1.0318 0.276768 0 
135 2 88.005 2.42068 -0.0575742 0 
136 2 88.6494 -0.431075 3.29788 0 
137 1 94.0405 -1.04799 -0.342134 0 
138 1 94.0785 1.65315 3.15894 0 
139 1 96.711 -1.2548 2.79773 0 
140 1 97.4365 1.49547 -0.197244 0 
141 2 97.1744 1.29982 3.07693 0 
142 2 97.013 -1.57681 -0.343926 0 
143 2 94.2822 1.53407 0.298858 0 
144 2 93.9617 -1.02142 3.20309 0 
145 1 99.6843 -1.56467 -0.268637 0 
146 1 99.6796 1.31589 3.17828 0 
147 1 102.904 -1.48169 2.87215 0 
148 1 102.393 1.96451 -0.185084 0 
149 2 102.712 1.43785 2.83925 0 
150 2 102.415 -1.35732 -0.537189 0 
151 2 99.831 1.63246 0.0056654 0 
152 2 100.123 -1.1744 2.67623 0 
153 1 105.837 -0.805923 -0.133158 0 
154 1 105.43 1.56166 2.58632 0 
155 1 108.537 -0.91281 3.44773 0 
156 1 108.544 2.00503 0.0215472 0 
157 2 108.303 1.76087 2.64036 0 
158 2 108.615 -0.799286 -0.163228 0 
159 2 105.779 1.62647 -0.39323 0 
160 2 105.916 -1.35545 3.12368 0 
161 1 110.941 -0.729153 0.523774 0 
162 1 111.138 2.13063 3.27641 0 
163 1 114.913 -1.39821 3.24015 0 
164 1 113.995 1.377 0.129876 0 
165 2 114.243 1.81841 2.93314 0 
166 2 113.943 -1.41084 0.547182 0 
167 2 111.463 2.08709 -0.200127 0 
168 2 111.536 -0.543317 3.24847 0 
169 1 117.43 -1.35793 0.250104 0 
170 1 116.651 2.07552 3.03364 0 
171 1 119.93 -1.13466 2.62391 0 
172 1 120.079 2.07992 -0.245482 0 
173 2 120.069 2.31184 2.19614 0 
174 2 119.939 -1.15658 -0.300763 0 
175 2 116.94 1.45964 -0.334232 0 
176 2 117.528 -0.4277 3.01482 0 
177 1 123.054 -1.09961 0.119897 0 
178 1 122.992 1.98582 2.71159 0 
179 1 125.45 -1.3282 3.81848 0 
180 1 125.911 1.73169 0.125633 0 
181 2 126.068 2.04821 2.98308 0 
182 2 125.774 -1.56147 -0.0234468 0 
183 2 122.948 1.77066 -0.151258 0 
184 2 122.937 -0.886879 2.96157 0 
185 1 128.741 -1.367 0.561207 0 
186 1 128.625 1.52447 3.36328 0 
187 1 131.698 -1.51488 2.34615 0 
188 1 131.639 1.619 -0.10227 0 
189 2 131.924 1.54142 2.44464 0 
190 2 132.074 40.0068 -0.0895727 0 
191 2 128.949 1.4076 -0.351529 0 
192 2 128.506 -1.48975 3.04681 0 
193 1 134.496 -1.86674 -0.612981 0 
194 1 134.544 1.01165 2.99747 0 
195 1 137.411 -1.02569 2.3843 0 
196 1 137.4 1.62268 -0.618198 0 
197 2 137.425 1.58716 2.36417 0 
198 2 137.225 -1.21783 -0.0238517 0 
199 2 134.787 1.82217 -0.42317 0 
200 2 134.431 -1.57718 2.76172 0 
201 1 140.39 -1.24437 -0.578421 0 
202 1 140.181 1.50526 3.06183 0 
203 1 143.13 -1.6525 2.59322 0 
204 1 143.419 1.59214 -0.791371 0 
205 2 143.219 1.47882 2.77349 0 
206 2 143.079 -1.5788 -0.643761 0 
207 2 140.515 1.69271 -0.404204 0 
208 2 140.015 -1.23281 2.7679 0 
209 1 145.878 -1.44227 -0.539286 0 
210 1 146.12 1.16249 2.44181 0 
211 1 149.079 39.7044 1.84466 0 
212 1 149.24 0.891371 -0.529128 0 
213 2 149.028 1.36792 2.34439 0 
214 2 149.153 -1.89115 -0.775003 0 
215 2 145.937 1.12734 -0.65216 0 
216 2 146.163 -1.63544 2.5418 0 
217 1 151.875 -1.78122 -1.16178 0 
218 1 151.631 1.00619 2.51424 0 
219 1 154.372 -1.70579 2.98945 0 
220 1 154.475 1.47297 -1.35305 0 
221 2 154.617 1.31448 2.86464 0 
222 2 154.332 -1.34756 -0.618885 0 
223 2 152.075 1.52474 -0.680778 0 
224 2 151.726 40.1363 2.71919 0 
225 1 157.282 -1.15039 -0.583359 0 
226 1 157.042 1.02208 3.2364 0 
227 1 160.426 -1.60051 2.86482 0 
228 1 160.578 1.29861 -0.501973 0 
229 2 161.182 1.13164 2.92397 0 
230 2 160.673 -1.30904 -0.207026 0 
231 2 157.302 1.58861 -1.24183 0 
232 2 157.697 -1.56614 2.44785 0 
233 1 163.389 -1.87247 -0.403617 0 
234 1 164.251 1.16336 2.52881 0 
235 1 166.859 -1.78768 2.31638 0 
236 1 166.643 1.58855 -0.957338 0 
237 2 166.654 1.84929 2.74096 0 
238 2 166.075 -1.23731 -0.453887 0 
239 2 164.06 1.63325 -0.719306 0 
240 2 164.3 -1.55225 2.59604 0 
241 1 169.673 -1.71658 -0.427864 0 
242 1 169.702 1.9514 2.30232 0 
243 1 172.416 -1.41901 2.70158 0 
244 1 172.885 1.27171 -0.0567457 0 
245 2 173.098 1.26916 2.44653 0 
246 2 172.368 -1.22596 -0.487004 0 
247 2 169.472 1.59286 0.00880369 0 
248 2 169.863 -1.82441 2.39583 0 
249 1 175.509 -1.25372 -0.336016 0 
250 1 175.436 1.75424 2.65832 0 
251 1 178.369 -1.3575 2.58937 0 
252 1 178.154 1.69531 -0.44593 0 
253 2 177.965 1.46518 2.83728 0 
254 2 178.371 -1.19643 -0.0361448 0 
255 2 175.701 2.03142 -0.0856864 0 
256 2 174.893 -1.17049 2.31657 0 
257 1 180.826 -1.96219 -0.70268 0 
258 1 181.451 1.86598 2.37067 0 
259 1 184.317 -1.83437 2.71839 0 
260 1 184.149 1.60911 -0.00768305 0 
261 2 184.343 1.64244 2.74436 0 
262 2 184.297 -1.759 -0.533233 0 
263 2 181.526 1.90227 -0.222336 0 
264 2 181.302 -1.71921 2.50529 0 
265 1 187.144 -1.70831 -0.93077 0 
266 1 187.06 1.62647 2.80761 0 
267 1 189.554 -1.63485 2.29857 0 
268 1 190.133 0.858713 -0.814347 0 
269 2 189.543 1.17345 2.26598 0 
270 2 189.85 -1.54602 -0.643913 0 
271 2 187.534 1.05025 -1.05428 0 
272 2 186.753 -1.96613 2.82663 0 
273 1 193.034 -1.92437 -0.753396 0 
274 1 193.576 1.20856 2.76445 0 
275 1 195.757 -1.57075 1.84923 0 
276 1 196.42 1.23658 -0.829116 0 
277 2 196.201 1.10572 1.86206 0 
278 2 195.717 -2.0353 -0.859734 0 
279 2 192.609 0.94246 -0.813327 0 
280 2 193.087 -1.75778 2.23235 0 
281 1 198.47 -2.06817 -1.06746 0 
282 1 198.745 1.65331 2.57285 0 
283 1 201.377 -1.40344 2.41366 0 
284 1 201.668 0.974923 -0.878748 0 
285 2 201.695 0.968588 2.01834 0 
286 2 201.327 -1.75787 -0.911768 0 
287 2 198.883 1.12813 -1.04728 0 
288 2 198.481 -1.59973 2.56234 0 
289 1 203.877 -1.49253 -0.720388 0 
290 1 204.441 1.92943 2.27184 0 
291 1 207.223 -1.483 2.08517 0 
292 1 207.137 1.9193 -0.922133 0 
293 2 207.204 1.37471 2.33434 0 
294 2 207.316 -2.04618 -0.687219 0 
295 2 204.248 1.08494 -0.805898 0 
296 2 205.068 39.6565 2.26351 0 
297 1 209.871 -1.31002 -0.650087 0 
298 1 209.721 1.0994 2.43775 0 
299 1 213.303 -1.34678 2.72142 0 
300 1 212.565 1.70157 -0.198132 0 
301 2 212.306 1.23835 2.3692 0 
302 2 213.021 -1.01124 -0.528743 0 
303 2 209.807 1.05401 -0.574836 0 
304 2 210.039 -1.44211 2.51871 0 
305 1 215.855 -0.982693 -0.694311 0 
306 1 216.306 1.14682 2.90885 0 
307 1 218.854 -1.84018 2.38885 0 
308 1 218.714 2.04884 -1.08603 0 
309 2 218.938 1.37614 1.6994 0 
310 2 218.517 -1.85912 -0.91573 0 
311 2 215.796 1.85357 -0.886895 0 
312 2 215.969 -1.51901 2.45284 0 
313 1 221.252 -1.38834 -1.15946 0 
314 1 222.026 1.40799 1.66033 0 
315 1 225.007 -1.74041 2.20419 0 
316 1 224.569 1.2755 -0.681675 0 
317 2 224.672 0.957629 2.10292 0 
318 2 224.853 -1.26745 -1.00105 0 
319 2 221.806 1.78456 -1.14987 0 
320 2 221.497 -1.62773 1.70528 0 
321 1 227.225 -1.22825 -1.01451 0 
322 1 227.49 1.33056 2.55659 0 
323 1 230.719 -1.61348 1.64631 0 
324 1 230.247 1.61993 -0.556051 0 
325 2 230.541 1.58063 2.19245 0 
326 2 230.6 -1.06181 -0.910974 0 
327 2 227.539 1.83581 -0.514295 0 
328 2 227.357 -1.58015 1.87189 0 
329 1 233.673 -1.55676 -0.704185 0 
330 1 233.15 1.443 1.73734 0 
331 1 235.871 -1.53455 2.54582 0 
332 1 236.093 2.32877 -1.1974 0 
333 2 236.252 1.61827 2.74765 0 
334 2 235.991 -0.663251 -1.13293 0 
335 2 233.05 2.06807 -0.97204 0 
336 2 233.537 -1.72313 1.85256 0 
337 1 239.079 -1.3425 -1.36883 0 
338 1 238.354 1.71625 1.50657 0 
339 1 241.977 -1.09742 1.7922 0 
340 1 242.33 1.61461 -0.861851 0 
341 2 242.244 1.44402 1.87767 0 
342 2 241.936 -1.38419 -1.05004 0 
343 2 239.382 1.72758 -0.668855 0 
344 2 238.743 -1.6799 1.81478 0 
345 1 245.131 -1.45377 -1.52159 0 
346 1 245.082 1.47121 2.46416 0 
347 1 247.645 -1.69548 1.74922 0 
348 1 248.096 1.92337 -1.19991 0 
349 2 248.099 1.72124 2.15325 0 
350 2 247.591 -1.37624 -1.09815 0 
351 2 244.606 1.60806 -1.30288 0 
352 2 244.977 -1.34611 2.07283 0 
353 1 250.681 -1.65276 -0.775727 0 
354 1 250.663 1.37947 2.43934 0 
355 1 253.32 -1.64981 1.94108 0 
356 1 253.417 1.34211 -1.05831 0 
357 2 253.401 1.35492 2.01167 0 
358 2 253.624 -1.52017 -1.25497 0 
359 2 251.053 1.39826 -0.887781 0 
360 2 250.471 -2.10678 1.65418 0 
361 1 256.36 -1.49475 -0.958106 0 
362 1 256.288 1.10572 1.93953 0 
363 1 259.531 -0.946626 2.39475 0 
364 1 258.859 1.47579 -0.76448 0 
365 2 259.038 1.91064 2.45592 0 
366 2 258.973 -1.22729 -1.52575 0 
367 2 256.06 1.75939 -0.734721 0 
368 2 256.119 -1.41137 1.89586 0 
369 1 261.877 -1.21507 -1.4586 0 
370 1 262.17 2.06124 1.76279 0 
371 1 264.492 -1.17848 2.17652 0 
372 1 264.752 1.34312 -0.83444 0 
373 2 265.074 1.79022 1.83031 0 
374 2 264.823 -1.15682 -1.10407 0 
375 2 262.237 1.86339 -1.03907 0 
376 2 262.095 -0.471158 1.68871 0 
377 1 268.424 -1.12282 -0.381017 0 
378 1 267.547 1.28839 2.00685 0 
379 1 270.778 -1.14254 2.13299 0 
380 1 270.672 1.4474 -0.883568 0 
381 2 270.834 1.49082 2.19547 0 
382 2 271.241 -1.25221 -0.79576 0 
383 2 267.627 1.39291 -0.945431 0 
384 2 268.031 -1.15156 1.79072 0 
385 1 274.069 -1.67591 -0.341188 0 
386 1 273.534 1.43027 2.11183 0 
387 1 276.719 -1.22723 1.57225 0 
388 1 276.879 1.28069 -1.11527 0 
389 2 276.778 1.45194 2.24394 0 
390 2 277.052 -1.60986 -0.946989 0 
391 2 273.947 1.37608 -0.879158 0 
392 2 273.555 -1.59075 2.08202 0 
393 1 279.962 -1.95586 -0.683309 0 
394 1 279.698 1.26848 2.14347 0 
395 1 282.935 -1.02525 2.57659 0 
396 1 282.085 1.43424 -0.646949 0 
397 2 282.714 1.33767 2.15534 0 
398 2 282.268 -1.12698 -0.795809 0 
399 2 279.659 1.81609 -0.580924 0 
400 2 279.611 -1.54515 1.79815 0 
401 1 -3.76738 5.00465 -0.74253 0 
402 1 -3.63158 7.79106 2.22761 0 
403 1 -0.72658 4.35182 2.75677 0 
404 1 -0.917761 8.42105 -0.476661 0 
405 2 -0.906432 7.31834 2.79487 0 
406 2 -1.21418 5.45497 -1.046 0 
407 2 -4.16602 7.93284 -0.9223 0 
408 2 -4.1471 4.5801 2.27123 0 
409 1 1.75691 4.71281 -0.632606 0 
410 1 1.85122 8.08661 2.39618 0 
411 1 4.7333 4.67786 2.84693 0 
412 1 4.74328 7.52364 -0.907493 0 
413 2 4.60285 7.87204 2.32146 0 
414 2 4.77528 4.54922 -0.105218 0 
415 2 1.81064 7.68601 -0.691104 0 
416 2 1.70927 3.82504 3.12288 0 
417 1 7.26541 4.65835 -0.923634 0 
418 1 7.40961 7.97975 2.12562 0 
419 1 10.7626 4.13248 2.61373 0 
420 1 10.4976 7.64404 -0.270914 0 
421 2 10.6043 7.39233 2.12194 0 
422 2 11.0322 4.8722 -0.457331 0 
423 2 7.53624 7.6401 -0.818431 0 
424 2 7.33425 4.85882 2.47316 0 
425 1 13.8232 5.02469 -0.283294 0 
426 1 13.4085 7.61549 2.48242 0 
427 1 16.247 3.90201 2.40184 0 
428 1 16.1583 7.70333 -0.510169 0 
429 2 16.0748 7.31304 2.58594 0 
430 2 16.3114 4.30052 -0.0628822 0 
431 2 13.5502 7.80068 -0.426711 0 
432 2 13.6912 4.31018 3.2492 0 
433 1 18.941 4.42772 -0.0673376 0 
434 1 18.6394 7.19516 2.96187 0 
435 1 21.7067 4.6146 2.37927 0 
436 1 21.9712 7.35551 -0.564652 0 
437 2 21.5501 7.3541 2.54922 0 
438 2 22.0563 4.33772 -0.34953 0 
439 2 19.3321 7.24 -0.592891 0 
440 2 19.1041 4.18722 2.39636 0 
441 1 24.8465 4.22321 -0.55397 0 
442 1 24.4084 7.45054 2.28632 0 
443 1 27.7725 4.53544 2.13096 0 
444 1 27.9458 7.49727 -0.296254 0 
445 2 27.5577 7.47236 1.92706 0 
446 2 27.925 4.48719 -1.07721 0 
447 2 24.807 7.30117 -0.600592 0 
448 2 24.5484 4.17073 2.3153 0 
449 1 30.7192 5.06966 -0.779193 0 
450 1 31.252 7.79254 2.12046 0 
451 1 33.7342 4.3309 1.82802 0 
452 1 33.7958 7.46445 -0.678845 0 
453 2 34.0126 7.99594 2.20581 0 
454 2 34.0048 4.52618 -0.751389 0 
455 2 31.2147 7.61675 -1.02109 0 
456 2 30.7864 4.77995 2.30642 0 
457 1 36.7263 4.65681 -1.20834 0 
458 1 36.4889 7.83502 2.31365 0 
459 1 39.2912 5.50439 2.26356 0 
460 1 39.4085 8.29673 -0.931667 0 
461 2 39.4068 8.03751 2.94179 0 
462 2 39.6033 4.6226 -0.59103 0 
463 2 36.4441 8.03629 -0.991888 0 
464 2 36.6691 5.01441 2.59791 0 
465 1 42.5338 4.96752 -0.257522 0 
466 1 41.9144 7.83324 1.99256 0 
467 1 45.5616 4.9537 2.61218 0 
468 1 45.3571 8.02188 -0.163504 0 
469 2 44.8866 7.62232 2.2055 0 
470 2 45.1073 4.93966 -0.177184 0 
471 2 42.1828 7.45068 -0.309835 0 
472 2 42.0852 4.93169 2.57325 0 
473 1 47.8387 4.66624 0.0265968 0 
474 1 47.8695 8.01902 2.97027 0 
475 1 50.5538 4.49169 2.35682 0 
476 1 50.8138 7.83682 -0.528415 0 
477 2 50.4678 7.48584 2.76257 0 
478 2 51.0544 4.91844 -0.372725 0 
479 2 48.1297 8.05444 0.138461 0 
480 2 47.8063 4.60461 2.58219 0 
481 1 53.5897 4.68645 -0.565084 0 
482 1 53.3827 7.23131 2.52328 0 
483 1 56.5164 4.85518 2.14462 0 
484 1 56.2347 8.32523 -0.859977 0 
485 2 56.0269 7.62629 3.09356 0 
486 2 56.6285 4.50063 -0.634065 0 
487 2 53.546 8.03836 -0.283655 0 
488 2 53.4053 4.44488 2.19263 0 
489 1 59.2185 4.32251 -0.233927 0 
490 1 59.1861 7.66451 2.66705 0 
491 1 62.3759 5.01266 2.21416 0 
492 1 61.7876 8.08241 -0.082742 0 
493 2 62.0942 7.74592 2.43785 0 
494 2 61.9852 5.34335 -0.445615 0 
495 2 58.8354 8.09288 -0.00382835 0 
496 2 58.8654 4.88123 2.76544 0 
497 1 64.9845 5.19716 -0.655163 0 
498 1 65.0165 7.59565 2.57426 0 
499 1 68.2269 4.71331 2.74584 0 
500 1 68.0459 7.9448 -0.532544 0 
501 2 68.2136 7.88031 2.82432 0 
502 2 67.7847 4.97559 -0.727882 0 
503 2 65.3036 7.96403 -0.411659 0 
504 2 65.078 4.7973 2.545 0 
505 1 70.8652 5.1065 -0.0184933 0 
506 1 71.444 8.28604 2.06661 0 
507 1 73.7482 4.82077 2.41577 0 
508 1 73.5934 7.94697 -0.50487 0 
509 2 74.0434 8.64043 2.53819 0 
510 2 73.6363 5.03495 -0.28211 0 
511 2 70.7606 8.32339 -0.377975 0 
512 2 71.318 5.23352 2.57449 0 
513 1 76.3997 4.943 -0.0307455 0 
514 1 76.7385 7.15886 3.1086 0 
515 1 79.8719 4.84462 2.83458 0 
516 1 78.8155 7.54794 -0.762314 0 
517 2 79.634 7.80196 3.11593 0 
518 2 79.7794 4.99088 -0.0944597 0 
519 2 76.4898 7.62478 -0.155698 0 
520 2 76.9506 4.60829 3.00569 0 
521 1 82.6221 4.71743 -0.366446 0 
522 1 82.2176 7.56033 2.33177 0 
523 1 85.2551 4.94766 2.59721 0 
524 1 85.6056 7.96756 0.084022 0 
525 2 85.1362 7.86004 2.8548 0 
526 2 85.4954 5.48026 -0.246195 0 
527 2 82.2772 7.93065 -0.299105 0 
528 2 82.6013 4.56239 2.35346 0 
529 1 88.7402 5.08419 -0.163521 0 
530 1 88.002 7.92226 2.8609 0 
531 1 90.8221 4.86768 3.418 0 
532 1 91.1208 7.88099 -0.160476 0 
533 2 91.4024 7.76958 2.8357 0 
534 2 91.3518 4.69231 -0.28565 0 
535 2 87.8778 7.56076 -0.442466 0 
536 2 88.0804 5.13252 3.01392 0 
537 1 94.1712 4.95563 -0.353864 0 
538 1 94.0205 8.44493 3.16595 0 
539 1 96.6421 4.64205 2.41951 0 
540 1 97.1562 8.04679 -0.219704 0 
541 2 97.0818 7.44698 2.37998 0 
542 2 96.9617 5.03207 -0.314317 0 
543 2 93.587 7.6631 -0.705454 0 
544 2 94.108 4.59193 2.61158 0 
545 1 99.7027 5.37454 0.283079 0 
546 1 100.662 8.35639 2.96574 0 
547 1 102.825 4.00191 2.95071 0 
548 1 103.026 8.55881 -0.447374 0 
549 2 103.105 8.32182 2.45693 0 
550 2 102.548 4.66329 0.531371 0 
551 2 100.013 7.98675 -0.190967 0 
552 2 99.3725 4.06005 2.67629 0 
553 1 105.323 4.99478 -0.112788 0 
554 1 105.668 8.05928 3.28063 0 
555 1 108.307 5.03731 2.82922 0 
556 1 108.907 7.96119 -0.380137 0 
557 2 108.601 7.8441 3.03193 0 
558 2 108.494 4.7571 -0.267415 0 
559 2 105.484 7.72207 -0.273098 0 
560 2 105.587 5.44442 2.92168 0 
561 1 111.312 4.73279 -0.246624 0 
562 1 111.504 7.83865 2.9348 0 
563 1 114.294 4.96295 2.86618 0 
564 1 114.32 7.5006 -0.0462612 0 
565 2 114.129 7.8734 2.83903 0 
566 2 114.212 5.16568 0.0186051 0 
567 2 111.388 8.02245 -0.112821 0 
568 2 111.607 4.97026 2.62346 0 
569 1 116.359 3.90651 -0.10014 0 
570 1 116.984 8.2015 3.3201 0 
571 1 119.808 4.9824 2.78149 0 
572 1 120.729 7.62026 0.191228 0 
573 2 120.159 7.9794 3.09535 0 
574 2 120.122 4.95707 -0.19807 0 
575 2 116.827 8.27909 0.31362 0 
576 2 117.266 4.52407 2.87975 0 
577 1 122.889 4.75331 -0.67965 0 
578 1 123.233 7.7442 3.1511 0 
579 1 125.883 5.15899 3.1735 0 
580 1 125.705 7.75867 -0.613409 0 
581 2 126.189 8.3423 3.56759 0 
582 2 125.953 4.5741 0.163813 0 
583 2 123.184 7.98095 0.336501 0 
584 2 122.918 5.19353 3.21819 0 
585 1 128.561 5.07971 -0.378139 0 
586 1 128.849 8.0134 3.37336 0 
587 1 131.596 5.00652 2.12211 0 
588 1 131.108 8.21068 0.0581794 0 
589 2 131.6 7.95558 2.50515 0 
590 2 131.711 5.33122 -0.684943 0 
591 2 128.5 7.94632 -0.46804 0 
592 2 129.124 5.23232 2.86794 0 
593 1 134.469 4.47249 -0.650534 0 
594 1 134.953 7.59723 3.08744 0 
595 1 137.105 4.23947 2.76909 0 
596 1 137.198 7.14005 -0.680785 0 
597 2 137.29 7.16754 3.32711 0 
598 2 137.327 4.52784 -0.35588 0 
599 2 134.587 7.51333 0.120412 0 
600 2 134.335 4.2319 2.55218 0 
601 1 140.407 4.52561 0.301082 0 
602 1 139.932 7.2277 2.7501 0 
603 1 143.361 4.31656 2.5974 0 
604 1 143.153 7.27661 -0.639002 0 
605 2 142.479 7.75438 2.1192 0 
606 2 143.522 4.49957 -0.120349 0 
607 2 139.58 7.72239 -0.160013 0 
608 2 140.103 4.48784 3.36787 0 
609 1 146.126 4.10333 -0.327995 0 
610 1 145.672 8.05632 2.87458 0 
611 1 148.974 4.29095 2.10848 0 
612 1 148.604 7.93003 -0.333301 0 
613 2 148.933 8.16245 2.87058 0 
614 2 148.985 5.19418 -0.608471 0 
615 2 145.913 7.6082 -0.504309 0 
616 2 146.573 3.99228 2.10064 0 
617 1 152.374 4.10037 -0.0315785 0 
618 1 151.775 7.83117 2.40369 0 
619 1 154.937 4.81972 2.53686 0 
620 1 155.298 7.88932 -1.09991 0 
621 2 155.119 7.73451 2.50982 0 
622 2 154.925 4.07292 -0.942198 0 
623 2 151.612 8.15111 -0.333832 0 
624 2 151.377 4.26525 2.42663 0 
625 1 157.883 4.33204 -0.0591587 0 
626 1 157.982 7.73636 2.76836 0 
627 1 160.211 4.57851 2.92607 0 
628 1 160.656 7.5201 -0.568405 0 
629 2 160.488 7.62892 2.2566 0 
630 2 160.459 4.22479 -0.492441 0 
631 2 157.633 7.05604 -0.451736 0 
632 2 157.423 4.02443 2.74319 0 
633 1 163.266 4.98209 -1.20753 0 
634 1 163.861 7.411 2.82277 0 
635 1 166.097 4.51725 2.4832 0 
636 1 167.207 7.50225 -0.61097 0 
637 2 166.517 7.42372 2.59762 0 
638 2 166.712 4.82119 -0.685076 0 
639 2 162.938 7.32449 -1.39972 0 
640 2 163.75 4.65495 3.18739 0 
641 1 169.331 4.49628 -0.242376 0 
642 1 169.883 7.3251 3.03223 0 
643 1 172.761 4.23624 2.48119 0 
644 1 172.672 7.62195 -0.851757 0 
645 2 172.668 7.61652 2.18967 0 
646 2 172.723 4.24546 -0.274802 0 
647 2 169.689 8.00226 -0.41821 0 
648 2 169.922 4.38875 2.99073 0 
649 1 175.084 4.57181 -0.485175 0 
650 1 175.661 7.30735 2.43918 0 
651 1 178.48 4.28254 1.92086 0 
652 1 178.658 7.48304 -0.512824 0 
653 2 178.553 7.35939 2.29692 0 
654 2 178.973 4.43931 -0.655155 0 
655 2 175.356 7.63656 -0.934663 0 
656 2 175.723 4.58852 2.79697 0 
657 1 181.95 4.87868 -0.650615 0 
658 1 181.369 7.48625 2.73532 0 
659 1 184.691 4.49662 2.55896 0 
660 1 184.682 7.54815 -0.320807 0 
661 2 184.694 7.12863 2.61005 0 
662 2 184.435 4.62569 -0.238593 0 
663 2 181.406 7.54653 -0.949211 0 
664 2 181.642 4.76695 2.21565 0 
665 1 187.291 4.07933 -1.35539 0 
666 1 187.748 7.00966 2.40935 0 
667 1 190.101 4.13358 2.91492 0 
668 1 189.93 7.07466 -1.38977 0 
669 2 190.026 7.36897 1.73106 0 
670 2 189.723 4.17015 -1.35459 0 
671 2 187.269 7.26226 -1.0639 0 
672 2 187.375 4.58389 3.26984 0 
673 1 192.529 4.03005 0.0531792 0 
674 1 192.7 7.73752 2.23757 0 
675 1 195.854 4.14757 2.31044 0 
676 1 195.405 7.28764 -0.685183 0 
677 2 195.638 7.31595 2.30238 0 
678 2 196.596 4.15236 -0.562308 0 
679 2 192.625 7.91083 -0.56804 0 
680 2 193.108 3.94707 2.45008 0 
681 1 198.862 4.17558 -1.07785 0 
682 1 198.187 6.70901 2.08768 0 
683 1 201.469 4.82695 1.90806 0 
684 1 201.676 7.45403 -0.643028 0 
685 2 201.684 7.62751 2.34089 0 
686 2 202.09 4.89746 -0.709571 0 
687 2 198.466 7.27515 -0.422218 0 
688 2 198.51 4.23151 2.31344 0 
689 1 204.687 4.80428 -1.04906 0 
690 1 204.774 7.75638 1.851 0 
691 1 207.636 4.73446 2.43192 0 
692 1 208.409 7.62551 -0.212057 0 
693 2 207.587 7.87219 2.13393 0 
694 2 207.483 4.84985 -0.436716 0 
695 2 204.171 7.72141 -0.900361 0 
696 2 204.298 4.64187 2.4157 0 
697 1 210.345 4.74721 -0.786843 0 
698 1 210.534 8.07069 2.694 0 
699 1 212.937 4.75681 2.24606 0 
700 1 213.425 8.02999 -0.641257 0 
701 2 213.579 7.73663 2.32929 0 
702 2 212.989 4.21518 -0.508603 0 
703 2 210.833 7.53792 -0.102078 0 
704 2 210.248 4.65887 2.31985 0 
705 1 215.869 4.30851 -0.471556 0 
706 1 216.189 7.36619 2.45305 0 
707 1 218.867 4.13227 2.19217 0 
708 1 219.275 7.5394 -0.137884 0 
709 2 218.71 7.2017 2.37525 0 
710 2 218.785 4.57954 -0.752085 0 
711 2 215.692 7.77727 -1.31913 0 
712 2 215.508 4.27386 2.18267 0 
713 1 221.696 4.23913 -0.479008 0 
714 1 221.588 7.42345 2.92408 0 
715 1 224.76 4.04507 2.25847 0 
716 1 224.593 7.22998 -1.32959 0 
717 2 224.459 6.60285 2.4391 0 
718 2 224.474 3.96395 -0.924352 0 
719 2 221.668 8.0313 -0.902837 0 
720 2 222.176 4.13891 2.27256 0 
721 1 227.432 4.3556 -0.0633238 0 
722 1 227.359 7.36921 2.21573 0 
723 1 230.544 4.4644 2.59571 0 
724 1 230.46 7.65584 -0.904434 0 
725 2 230.227 7.13129 2.7086 0 
726 2 230.054 4.54086 -0.30319 0 
727 2 227.467 7.6406 -0.275434 0 
728 2 227.365 3.88873 2.90987 0 
729 1 232.996 4.78939 -0.830515 0 
730 1 233.046 7.61658 2.03694 0 
731 1 236.261 4.3993 2.1144 0 
732 1 236.497 7.76865 -0.605598 0 
733 2 236.387 7.86573 2.59692 0 
734 2 236.519 4.7849 -0.760412 0 
735 2 233.073 7.89427 -0.570064 0 
736 2 233.671 4.48895 2.28394 0 
737 1 239.339 5.05514 -1.60752 0 
738 1 239.186 7.45747 2.76331 0 
739 1 241.784 4.53139 2.37715 0 
740 1 242.123 7.82762 -1.15799 0 
741 2 242.332 8.3325 2.67697 0 
742 2 242.338 4.87203 -0.743971 0 
743 2 239.334 7.57691 -1.59149 0 
744 2 238.865 5.04244 2.33226 0 
745 1 245.043 4.38188 -0.360029 0 
746 1 244.819 7.94198 2.01659 0 
747 1 247.842 4.24594 2.23683 0 
748 1 247.39 7.56941 -0.752133 0 
749 2 248.007 7.51096 1.84313 0 
750 2 247.516 4.59267 -1.02836 0 
751 2 244.862 7.71368 -0.786008 0 
752 2 244.83 4.62718 2.46484 0 
753 1 250.841 4.72601 -0.466951 0 
754 1 250.63 8.28567 1.911 0 
755 1 253.892 4.52042 1.91227 0 
756 1 253.54 8.16 -0.784852 0 
757 2 253.367 8.09908 1.85164 0 
758 2 253.627 4.50395 -0.740456 0 
759 2 251.014 7.4258 -0.425887 0 
760 2 250.788 4.7621 2.25068 0 
761 1 256.117 4.83011 -1.04556 0 
762 1 256.932 7.94901 2.37399 0 
763 1 258.717 4.68319 2.53287 0 
764 1 259.529 7.67428 -0.827095 0 
765 2 259.654 7.61066 1.94676 0 
766 2 259.373 4.30815 -0.676371 0 
767 2 256.767 7.91686 -0.60007 0 
768 2 256.275 5.53553 2.39372 0 
769 1 262.542 4.4744 -1.12869 0 
770 1 262.055 7.3498 1.70508 0 
771 1 265.008 4.93634 1.62925 0 
772 1 265.474 7.54694 -0.551118 0 
773 2 265.151 7.46651 2.43901 0 
774 2 265.002 4.55442 -1.15838 0 
775 2 262.221 7.07923 -0.906526 0 
776 2 262.515 4.52284 1.44944 0 
777 1 267.897 4.42687 -1.09128 0 
778 1 268.678 8.11729 2.25089 0 
779 1 270.452 4.68851 1.79259 0 
780 1 271.158 7.39547 -1.40586 0 
781 2 270.993 7.64116 1.86861 0 
782 2 270.851 4.46762 -0.88073 0 
783 2 268.609 8.44311 -0.980725 0 
784 2 267.969 5.33424 1.89086 0 
785 1 273.759 4.09981 -1.03388 0 
786 1 273.688 6.94443 1.48435 0 
787 1 277.032 4.5577 2.47812 0 
788 1 276.699 7.30696 -0.15461 0 
789 2 276.754 7.09378 2.48679 0 
790 2 276.932 4.97135 -1.10117 0 
791 2 273.679 8.09807 -0.908796 0 
792 2 273.819 4.44512 1.97872 0 
793 1 279.943 4.29821 -0.450246 0 
794 1 279.652 7.04601 2.85582 0 
795 1 282.745 4.55954 2.08135 0 
796 1 282.082 7.8775 -1.05763 0 
797 2 282.346 7.32308 2.27625 0 
798 2 282.674 4.46458 -0.681581 0 
799 2 279.529 7.40979 -0.742892 0 
800 2 280.062 4.56447 2.36112 0 
801 1 -4.81522 10.5632 -0.951562 0 
802 1 -4.29145 13.4594 1.85899 0 
803 1 -1.09317 11.2517 2.21131 0 
804 1 -1.86075 13.5367 -0.807196 0 
805 2 -1.42185 13.7541 2.36015 0 
806 2 -0.798585 10.9748 -0.423572 0 
807 2 -4.27021 14.0467 -0.841309 0 
808 2 -4.47658 10.4252 1.98044 0 
809 1 1.92425 11.5116 -0.754018 0 
810 1 1.91975 13.591 2.51125 0 
811 1 4.66538 10.5906 2.47598 0 
812 1 4.81991 13.584 -0.748718 0 
813 2 4.49831 13.3922 2.32079 0 
814 2 4.84159 10.8406 -1.06686 0 
815 2 2.2022 14.3454 -0.569148 0 
816 2 1.7906 10.6376 2.34512 0 
817 1 7.84115 10.8826 -0.574998 0 
818 1 7.61284 13.9413 2.56122 0 
819 1 10.6382 10.8366 2.48669 0 
820 1 10.2641 13.7701 -0.779827 0 
821 2 10.4227 13.8912 2.70037 0 
822 2 10.2183 10.2726 -0.370458 0 
823 2 7.47027 13.4849 -0.982669 0 
824 2 7.59786 10.4294 2.35338 0 
825 1 13.5438 10.5053 -0.925413 0 
826 1 13.0437 13.6429 2.39524 0 
827 1 15.7557 10.0906 3.05984 0 
828 1 15.8047 13.3834 -0.264283 0 
829 2 16.3166 14.0378 2.32561 0 
830 2 15.9709 10.7749 -0.869973 0 
831 2 13.1309 13.4607 -0.358411 0 
832 2 13.5164 10.6371 2.18342 0 
833 1 18.9674 10.5035 -0.418755 0 
834 1 19.0424 13.4619 1.98704 0 
835 1 22.0551 10.3754 2.56991 0 
836 1 21.8881 13.8252 -0.582284 0 
837 2 21.6202 13.2343 2.48732 0 
838 2 22.0197 10.3806 -0.0993678 0 
839 2 18.9664 13.8399 -0.610086 0 
840 2 18.5242 10.1991 2.48359 0 
841 1 25.0834 10.5332 -0.342958 0 
842 1 24.684 12.9567 1.94281 0 
843 1 27.7355 10.3287 2.48971 0 
844 1 28.0533 14.2031 -0.854474 0 
845 2 28.1476 12.8458 2.12301 0 
846 2 27.608 9.82077 -0.951403 0 
847 2 24.7231 13.0368 -0.856805 0 
848 2 25.143 10.0269 2.4541 0 
849 1 30.8121 10.7148 -0.473336 0 
850 1 30.7007 12.9672 2.68783 0 
851 1 33.6921 10.4277 2.63723 0 
852 1 33.3382 13.5905 -0.358338 0 
853 2 33.6861 13.1607 2.49118 0 
854 2 33.4751 10.6018 -0.668985 0 