ITEM: TIMESTEP
11500000
ITEM: NUMBER OF ATOMS
8400
ITEM: BOX BOUNDS pp pp pp
-5.9099547646241319e+00 2.8359995476463484e+02
-2.1446273254920634e+00 4.0174627325491812e+01
-1.7757301867509554e+00 1.6325730186751606e+01
ITEM: ATOMS id type x y z f_TolTpA 
1 1 -4.1257 -1.01754 -0.565566 920.216 
2 1 -4.45214 1.46484 2.66567 889.708 
3 1 -1.74893 -1.40664 2.77914 910.176 
4 1 -1.4354 1.71201 -0.00731088 916.128 
5 2 -1.69768 2.45105 2.40389 903.165 
6 2 -1.25152 -1.12236 -0.151852 910.322 
7 2 -4.12463 1.64752 -0.399636 907.867 
8 2 -4.35807 -1.40388 2.30516 892.332 
9 1 1.4487 -0.928491 0.0282032 912.261 
10 1 1.56873 2.17742 2.56128 908.162 
11 1 4.06122 -1.10309 3.21105 912.601 
12 1 4.08827 1.81939 -0.4926 893.818 
13 2 4.08046 1.97604 2.39096 907.07 
14 2 4.30198 -0.908685 -0.214458 905.888 
15 2 1.56439 1.93102 -0.39783 927.979 
16 2 0.809127 -1.09514 2.92808 918.646 
17 1 7.24984 -0.819842 -0.358525 902.866 
18 1 7.34188 2.05686 2.20985 918.608 
19 1 10.2011 -0.926806 2.3085 925.28 
20 1 10.5596 1.84652 -0.324306 923.146 
21 2 10.0845 1.63651 2.57781 914.501 
22 2 10.0649 -1.50173 -0.193809 946.178 
23 2 7.38941 2.137 -0.270308 927.085 
24 2 7.04084 -0.881178 2.68835 917.934 
25 1 13.0379 -1.08477 -0.395842 925.662 
26 1 12.9807 1.89152 2.8719 935.773 
27 1 16.4591 -1.02276 2.79479 930.528 
28 1 16.1169 1.7726 0.0181399 932.023 
29 2 16.4699 1.92427 2.97024 944.427 
30 2 15.9221 -1.08812 -0.209758 924.859 
31 2 13.2945 1.85813 -0.0898287 924.127 
32 2 13.1615 -1.17306 2.37971 917.549 
33 1 18.6468 -1.29942 -0.196517 928.66 
34 1 19.321 1.95079 2.42836 958.894 
35 1 21.6793 -1.11179 3.03338 924.853 
36 1 21.7324 1.3703 -0.11128 962.311 
37 2 21.8215 1.40554 3.00714 965.356 
38 2 21.541 -1.18896 0.108073 924.12 
39 2 18.9136 1.71808 -0.0400186 929.774 
40 2 18.6394 -1.0196 2.93423 946.841 
41 1 24.4535 -0.983549 -0.387802 947.811 
42 1 24.4064 1.4943 3.1692 925.797 
43 1 27.5271 -1.49967 2.3988 939.015 
44 1 27.6815 1.83963 -0.627244 949.159 
45 2 27.7071 1.62446 2.75278 948.82 
46 2 27.5434 -1.33938 -0.207991 947.901 
47 2 24.311 1.5992 -0.355911 946.211 
48 2 24.3952 -1.2836 2.61892 925.745 
49 1 30.2918 -1.26141 -0.217951 954.685 
50 1 30.6583 1.40391 2.9029 939.23 
51 1 33.0431 -1.61811 2.59543 945.713 
52 1 33.0897 1.83826 -0.726557 966.346 
53 2 33.2877 1.46525 2.0312 961.008 
54 2 33.0631 -1.36395 -0.641969 954.752 
55 2 30.3818 1.66518 -1.0659 955.145 
56 2 30.315 -1.15614 3.05368 959.67 
57 1 35.7705 -1.71923 -0.511068 936.203 
58 1 36.0022 1.26787 2.01104 953.417 
59 1 39.3445 -1.24823 2.38268 953.571 
60 1 38.677 1.74795 -0.121727 957.359 
61 2 38.7597 1.849 2.80074 960.175 
62 2 39.2074 -1.17421 -0.0860764 969.344 
63 2 36.0433 1.28303 -0.502435 954.038 
64 2 35.8504 -1.64426 2.67356 960.587 
65 1 42.685 -1.11271 -0.491443 960.58 
66 1 41.7626 1.73163 2.21041 948.405 
67 1 44.3305 -1.40916 2.65443 969.56 
68 1 44.9377 1.54459 -0.179491 964.953 
69 2 44.6589 1.36067 2.64753 967.601 
70 2 45.1155 -1.29608 -0.261936 972.347 
71 2 42.1485 1.45936 -0.564938 968.657 
72 2 41.7531 -1.62443 2.79773 957.391 
73 1 47.6502 -1.25296 0.304032 972.476 
74 1 47.2781 1.79441 2.61084 974.738 
75 1 50.4429 -1.21463 2.84839 986.796 
76 1 50.3626 1.90529 -0.532618 979.535 
77 2 50.1376 2.17789 2.2189 983.096 
78 2 50.469 -0.982529 -0.355911 974.209 
79 2 47.8014 2.14611 -0.0628395 973.424 
80 2 47.8903 -1.59619 2.80193 973.81 
81 1 53.1169 -0.984565 -0.492068 972.83 
82 1 52.7715 2.16001 2.09115 988.275 
83 1 56.1502 -0.735877 2.08194 985.592 
84 1 55.9969 1.74945 -0.662424 970.331 
85 2 55.7468 1.81944 2.11644 972.023 
86 2 56.0171 -0.959792 -0.602001 993.454 
87 2 52.9563 1.95817 -0.873118 988.614 
88 2 53.2988 -0.998666 2.41762 994.959 
89 1 59.2962 -1.4063 -0.396945 1001.08 
90 1 58.8254 1.78899 2.72255 996.353 
91 1 62.336 -1.77171 2.44688 995.583 
92 1 61.7012 1.43778 -0.545755 1010.28 
93 2 62.3855 1.13359 2.82468 989.128 
94 2 61.9492 -1.15629 -0.695648 1005.04 
95 2 59.0125 2.02728 -0.347131 988.753 
96 2 59.2787 -0.964308 2.23844 995.118 
97 1 65.4198 -2.05283 -0.804082 1005.12 
98 1 65.2289 1.36358 2.16256 993.241 
99 1 67.4632 -1.64676 2.88137 1001.49 
100 1 68.0802 1.50036 -0.571013 997.888 
101 2 68.1574 1.42519 2.70209 995.044 
102 2 67.7163 -1.52372 -0.0252765 1002.67 
103 2 65.132 1.77595 -0.372993 1011.15 
104 2 64.9593 -1.24384 2.94367 1004.49 
105 1 70.4926 -1.55542 -0.328048 1002.6 
106 1 70.8096 1.39987 2.72759 1009.54 
107 1 73.7957 -1.74476 2.82423 1018.21 
108 1 73.8694 0.949795 -0.0209445 1014.72 
109 2 73.3407 1.11701 2.65863 1013.54 
110 2 73.5591 -1.89404 -0.169101 1005.08 
111 2 70.9357 1.12352 -0.832661 1029.5 
112 2 70.48 -1.74902 3.16585 1013.83 
113 1 77.1577 -1.68483 -0.456324 1002.29 
114 1 76.638 1.4513 3.27423 1018.16 
115 1 79.1739 -1.30478 2.80084 1000.8 
116 1 79.661 1.42848 -0.239909 990.35 
117 2 79.0306 1.85281 2.23984 995.487 
118 2 79.967 -1.65396 -0.618681 1019.44 
119 2 76.3431 1.02032 -0.513624 1020.24 
120 2 76.2956 -1.67526 3.28729 1007.8 
121 1 82.4407 -1.32199 0.0111758 1009.23 
122 1 83.0718 2.04923 2.23282 1013.68 
123 1 85.3551 -1.08061 2.89589 1017.44 
124 1 85.509 1.07922 -0.315927 1002.66 
125 2 85.5822 1.82319 2.40375 1033.15 
126 2 85.2897 -1.52317 0.296243 1039.91 
127 2 82.4464 1.25795 -1.1642 1005.01 
128 2 82.0963 -0.303928 2.20331 1014.05 
129 1 88.3174 -1.68058 -0.700339 1030.26 
130 1 88.0469 1.55663 2.29765 1046.56 
131 1 90.7058 -1.25245 2.69268 1036.15 
132 1 91.2481 1.76203 -0.422701 1056.01 
133 2 90.7673 1.7973 2.91968 1048.48 
134 2 91.225 -0.716203 -0.240307 1038.65 
135 2 87.8043 1.25708 -0.667937 1040.97 
136 2 88.1625 -1.57063 2.4482 1015.47 
137 1 93.8057 -1.4792 -0.370433 1044.39 
138 1 94.0087 1.43155 2.26179 1022.56 
139 1 96.7712 -1.38639 2.72419 1008.4 
140 1 96.9155 1.43974 -0.593352 1049.44 
141 2 96.6907 1.40798 2.52267 1045.19 
142 2 97.0521 -1.04794 0.00083959 1057.05 
143 2 93.734 1.27312 -1.42322 1034.08 
144 2 93.8373 -1.49908 2.66007 1015.69 
145 1 99.5704 -1.27263 -0.917504 1059.77 
146 1 99.2858 1.6276 2.44354 1043.15 
147 1 102.749 -1.31745 2.25893 1048.92 
148 1 102.447 1.38514 -0.322568 1037.4 
149 2 102.75 1.55527 2.98994 1058.12 
150 2 102.603 -1.25586 -0.565711 1052.32 
151 2 99.7198 1.56357 -0.399529 1058.67 
152 2 100.079 -1.29745 2.13965 1033.52 
153 1 105.315 -1.90269 -0.44266 1056.7 
154 1 105.359 1.27289 2.58338 1032.58 
155 1 108.714 -1.14045 3.17271 1031.06 
156 1 108.217 1.2022 -0.388031 1055.82 
157 2 107.916 1.20443 3.05386 1060.85 
158 2 108.724 39.9894 -0.449587 1069.11 
159 2 105.077 1.34988 -0.10536 1056.21 
160 2 105.386 -1.74241 2.52293 1063.68 
161 1 111.569 -1.58931 0.0999369 1050.11 
162 1 110.854 1.36378 2.49631 1044.33 
163 1 114.165 -1.69299 2.61021 1067.14 
164 1 114.755 1.66866 -0.470588 1069.27 
165 2 114.601 1.20606 2.5137 1052.54 
166 2 114.321 -1.14877 -0.381571 1065.74 
167 2 110.692 1.2362 -0.0365358 1059.23 
168 2 111.541 -1.46066 2.70514 1028.95 
169 1 117.827 -1.87477 -0.944675 1054.06 
170 1 117.116 0.685637 2.05027 1058.23 
171 1 120.037 -1.36019 2.51361 1065.82 
172 1 119.863 0.965448 -1.15661 1066.42 
173 2 120.661 1.37976 2.53851 1059.72 
174 2 120.075 -1.83627 -0.4084 1057.64 
175 2 117.328 0.836257 -0.795658 1047.23 
176 2 117.148 -1.90747 2.3666 1077.08 
177 1 123.274 -1.78239 -0.0880394 1069.8 
178 1 123.293 1.26339 2.54815 1084.21 
179 1 126.203 -1.81946 2.53053 1061.07 
180 1 125.703 1.36375 -0.908905 1070.91 
181 2 125.973 0.875304 2.15534 1059.13 
182 2 126.235 -1.79385 -0.0874663 1094.31 
183 2 122.889 0.830259 -0.420025 1059.24 
184 2 123.231 -1.83622 2.55205 1063.89 
185 1 128.417 -1.30185 -0.840752 1071.36 
186 1 129.357 1.14969 2.60706 1053.29 
187 1 132.008 -2.1015 2.17833 1081.38 
188 1 132.338 1.11033 -0.41673 1065.81 
189 2 132.359 1.09974 2.64045 1068.69 
190 2 132.034 -1.70181 -0.565692 1091.27 
191 2 128.69 1.213 -0.665179 1072.57 
192 2 129.135 -1.61123 2.67128 1080.46 
193 1 135.186 -1.93287 -0.937191 1106.95 
194 1 135.06 1.11402 2.53763 1080.06 
195 1 138.463 -1.76813 2.97825 1089.42 
196 1 137.956 1.55793 -0.440158 1081.21 
197 2 137.854 1.56491 3.10144 1085.64 
198 2 138.114 -1.43815 -0.305855 1085.28 
199 2 134.743 1.86336 -0.531072 1110.18 
200 2 134.777 -1.77181 2.78422 1074.78 
201 1 141.015 -1.86512 -0.759034 1115.54 
202 1 141.363 1.47662 2.51439 1109.9 
203 1 144.067 -1.60798 1.80711 1111.3 
204 1 144.034 1.1299 -0.515532 1100.18 
205 2 143.912 1.34269 2.33631 1107.29 
206 2 143.82 -1.41342 -1.02482 1086.72 
207 2 141.14 0.97123 -0.872078 1100.53 
208 2 140.951 -1.39882 2.49403 1111.89 
209 1 146.469 -1.68254 -1.18773 1086.56 
210 1 146.369 1.5116 2.06979 1125.55 
211 1 149.325 -1.69397 2.15181 1096.61 
212 1 149.271 1.45567 -0.260797 1087.31 
213 2 149.083 1.12431 2.38333 1070.27 
214 2 149.475 -1.81607 -1.12869 1095.75 
215 2 146.449 1.49592 -0.967682 1105.52 
216 2 146.678 -1.73567 1.8106 1114.14 
217 1 152.219 -1.7249 -0.796961 1082.86 
218 1 152.31 1.23325 2.17966 1092.37 
219 1 155.416 -1.12838 1.86752 1089.49 
220 1 155.896 1.12499 -1.10519 1071.75 
221 2 155.836 1.51809 2.24948 1071.66 
222 2 155.199 -1.61352 -0.838002 1072.83 
223 2 152.21 1.18026 -0.591459 1088.86 
224 2 152.142 -1.74151 2.18888 1095.34 
225 1 157.908 -1.62921 -0.907294 1034.99 
226 1 158.943 1.9374 1.94057 1076.82 
227 1 160.926 -1.35404 2.56302 1053.12 
228 1 161.306 1.93934 -0.285957 1074.59 
229 2 161.642 1.82472 2.33064 1078.69 
230 2 160.793 -1.38739 -0.176726 1061.19 
231 2 158.447 1.10347 -0.805915 1064.29 
232 2 158.391 -0.519074 3.03711 1074.02 
233 1 164 -1.8933 -0.728518 1093.4 
234 1 163.904 1.04828 2.49782 1064.43 
235 1 166.935 -1.65457 2.68393 1057.34 
236 1 166.973 1.48052 -0.844886 1060.1 
237 2 166.963 1.15805 2.18822 1075.98 
238 2 166.985 39.9142 -1.04138 1056.4 
239 2 164.082 1.85813 -0.554339 1068.41 
240 2 163.715 -1.77636 2.74632 1055.98 
241 1 169.581 -2.12486 -0.968935 1053.64 
242 1 169.946 1.27378 2.03433 1040.16 
243 1 172.807 -1.74121 1.89487 1049.27 
244 1 172.258 0.940242 -1.0016 1050.51 
245 2 172.867 2.17861 2.03052 1037.63 
246 2 172.105 -1.84282 -1.15305 1054.35 
247 2 169.806 0.776275 -0.826176 1065.11 
248 2 169.765 40.0801 2.099 1072.75 
249 1 175.662 -1.79619 -1.15539 1049.51 
250 1 175.55 1.89663 2.36747 1055.57 
251 1 178.782 -0.971047 3.10388 1028.57 
252 1 178.656 2.08268 -0.255129 1041.77 
253 2 178.273 1.96107 2.66782 1040.35 
254 2 178.233 39.9373 -1.50638 1053.2 
255 2 175.992 1.66831 -0.628435 1015.64 
256 2 175.238 -1.43339 1.8812 1041.3 
257 1 180.926 -1.46429 -1.16061 1031.57 
258 1 181.997 1.53292 2.49639 1054.45 
259 1 184.574 -1.24014 2.33208 1004.59 
260 1 184.529 1.30154 -0.727685 1046.05 
261 2 184.48 1.9671 2.10872 1022.41 
262 2 184.217 -1.26597 -0.431617 1032.49 
263 2 180.972 1.19693 -0.985298 1027.37 
264 2 181.194 -0.830846 2.65802 1032.14 
265 1 187.313 -1.29264 -0.888624 1013.7 
266 1 187.304 1.80235 2.34524 1036.48 
267 1 190.421 -1.61716 1.9796 998.693 
268 1 190.658 1.54678 0.00871852 1025.51 
269 2 190.32 2.02843 2.33838 1031.78 
270 2 190.325 -1.39073 -0.480613 1003.27 
271 2 187.269 1.23118 -0.797132 1026.12 
272 2 187.117 -1.05007 1.76153 1041.72 
273 1 193.231 -1.36694 -0.335198 1020.1 
274 1 193.139 1.91076 2.63895 1020.64 
275 1 196.139 -1.0171 2.28206 994.357 
276 1 195.881 1.42791 -0.642704 1011.49 
277 2 196.435 1.87498 2.62146 1001.59 
278 2 195.965 -1.46371 -0.759967 1029.48 
279 2 193.26 1.76284 -0.456047 1007.63 
280 2 193.161 -1.14406 2.16957 1004.52 
281 1 198.807 -0.962298 -0.892838 1025.28 
282 1 198.982 1.94399 2.33139 1009.26 
283 1 201.888 -1.0112 2.02433 1039.64 
284 1 201.488 2.48713 -0.72707 1026.01 
285 2 201.338 1.96467 2.72665 986.792 
286 2 201.991 -1.16614 -0.463687 993.281 
287 2 198.956 2.06077 -0.54661 1020.29 
288 2 199.304 -0.857573 2.28512 1041.05 
289 1 204.717 -0.565681 -0.619207 1001.42 
290 1 203.838 1.45091 2.60141 1012 
291 1 207.314 -1.16851 2.58484 1021.51 
292 1 207.31 2.43513 0.193585 1020.58 
293 2 207.699 1.46129 2.46258 1008.17 
294 2 206.938 -1.61804 -0.0663945 986.448 
295 2 204.51 2.34071 0.0580301 985.681 
296 2 204.539 -1.04228 2.30218 994.458 
297 1 210.306 -1.29722 0.0147332 1005.75 
298 1 209.816 2.79951 2.90442 1009.28 
299 1 213.185 -0.599164 2.90764 998.641 
300 1 212.475 1.87074 -0.38013 1003.07 
301 2 213.123 2.11131 3.06249 994.957 
302 2 212.934 -1.44471 -0.570968 993.047 
303 2 209.601 2.46335 -0.350721 987.171 
304 2 210.127 -0.990062 3.02092 989.539 
305 1 215.909 -1.21868 -0.921866 979.522 
306 1 215.698 2.42033 2.55378 992.268 
307 1 219.076 -0.632839 2.52316 986.383 
308 1 219.258 2.02545 0.0471609 983.187 
309 2 218.883 2.08909 2.37375 998.744 
310 2 219.062 -1.0564 -0.438394 986.549 
311 2 214.883 2.1623 -0.34942 1003.05 
312 2 215.839 -0.695307 2.66303 984.184 
313 1 221.816 -0.602842 -0.1709 961.302 
314 1 221.53 1.66597 3.18865 966.268 
315 1 224.575 -1.28047 2.71605 966.353 
316 1 224.585 2.34651 -0.00731481 970.285 
317 2 224.31 1.53732 3.07191 964.514 
318 2 224.708 -1.30485 -0.356744 984.222 
319 2 222.2 1.92976 -0.0185246 974.551 
320 2 221.713 -0.997795 2.71055 971.907 
321 1 227.79 -0.987029 -0.290249 972.491 
322 1 227.371 1.32008 2.54908 974.904 
323 1 231.121 -0.750003 3.09481 974.682 
324 1 230.337 2.33391 -0.169229 982.149 
325 2 230.612 1.74533 2.97644 961.497 
326 2 230.477 -0.121418 -0.533209 994.309 
327 2 227.239 2.17392 -0.558941 977.166 
328 2 227.385 -1.07257 2.67122 972.185 
329 1 233.091 -1.34264 -0.243214 997.366 
330 1 233.273 1.63868 3.15619 951.966 
331 1 236.5 -0.684744 2.32267 951.715 
332 1 235.769 2.10532 -0.28387 962.812 
333 2 236.287 1.89511 2.715 956.466 
334 2 235.845 -1.40957 -0.323702 941.138 
335 2 233.128 2.05058 0.239948 944.249 
336 2 233.834 -0.856644 2.59133 967.782 
337 1 238.978 -1.22282 0.00443726 943.941 
338 1 239.083 1.81897 2.92303 959.3 
339 1 242.134 -1.1994 2.03506 934.231 
340 1 241.807 1.99121 -0.482387 945.194 
341 2 242.205 1.4671 2.13671 944.466 
342 2 241.951 -1.44043 -0.472959 958.614 
343 2 238.905 1.71511 -0.552536 951.08 
344 2 239.175 -1.16568 2.80509 952.685 
345 1 244.588 40.1738 -0.0189519 957.67 
346 1 245.222 1.41313 2.4143 964.741 
347 1 248.265 -1.67201 2.46129 938.457 
348 1 248.05 1.21395 -0.619085 948.212 
349 2 248.828 1.39014 2.63744 935.136 
350 2 248.323 -1.79079 -0.441245 948.925 
351 2 245.015 1.88895 -0.703469 939.249 
352 2 245.755 -1.35217 2.29679 935.714 
353 1 251.169 -1.55857 -0.906785 935.157 
354 1 251.4 1.15522 2.78356 944.67 
355 1 254.096 -2.09465 2.99295 933.99 
356 1 254.136 1.29821 -1.16688 949.483 
357 2 254.026 1.76654 2.9718 941.857 
358 2 253.886 -1.42389 -0.124813 943.142 
359 2 250.893 1.47797 -1.01744 943.58 
360 2 250.828 -1.59622 3.35338 957.301 
361 1 256.279 -1.62706 -0.600948 944.39 
362 1 256.631 1.54797 2.36956 926.546 
363 1 259.677 -1.52484 2.76222 955.997 
364 1 259.326 1.6052 -0.631786 949.625 
365 2 259.689 1.76834 2.35413 935.679 
366 2 258.765 -1.91085 -0.999342 944.446 
367 2 256.577 1.97181 -1.18674 956.449 
368 2 256.667 -1.02351 2.47298 934.836 
369 1 262.07 -1.83262 -0.316838 943.864 
370 1 262.266 1.38563 2.54267 923.405 
371 1 265.25 -1.19652 2.25981 922.148 
372 1 265.064 1.62865 -0.720468 923.343 
373 2 265.065 1.5896 2.21583 909.2 
374 2 264.981 -1.72519 -0.269471 922.164 
375 2 262.386 1.08867 -0.61513 940.129 
376 2 262.277 -1.36397 2.54187 921.81 
377 1 267.843 -1.71009 -0.278783 935.367 
378 1 267.682 1.74947 2.69288 918.498 
379 1 270.46 -1.45457 2.75751 912.14 
380 1 270.811 1.35883 -0.067088 917.616 
381 2 270.889 1.31506 2.50128 918.496 
382 2 270.311 -1.91146 -0.457468 943.635 
383 2 267.935 1.14351 -0.386599 923.104 
384 2 268.025 -1.04367 2.44691 937.962 
385 1 273.183 -1.39131 -0.489979 941.277 
386 1 273.69 1.24975 2.30935 911.559 
387 1 276.199 -1.01435 2.16986 903.935 
388 1 276.956 1.53059 -0.37608 914.571 
389 2 276.424 1.4357 2.70187 924.065 
390 2 277.023 -1.31193 -0.244555 939.484 
391 2 274.222 1.3969 -0.273209 927.483 
392 2 273.292 -1.3422 2.02803 919.541 
393 1 279.725 -1.35223 -0.190146 896.162 
394 1 279.681 1.85261 2.31206 915.964 
395 1 282.233 -1.50417 3.02986 894.931 
396 1 282.549 1.29689 -0.774508 905.525 
397 2 282.575 1.82291 3.04075 914.739 
398 2 282.582 -1.16197 -0.21089 910.233 
399 2 279.799 1.53842 -0.526472 895.871 
400 2 279.632 -1.38491 2.29598 897.308 
401 1 -3.98674 4.72582 -0.141725 889.978 
402 1 -4.31276 8.13183 2.50941 907.281 
403 1 -1.24645 4.95372 2.67677 906.16 
404 1 -1.4961 8.0007 -0.0302116 899.604 
405 2 -1.69788 8.35039 2.59586 897.072 
406 2 -1.23115 5.19309 0.203134 920.693 
407 2 -4.77996 8.06055 0.023388 894.347 
408 2 -4.39728 5.35818 2.68475 897.08 
409 1 1.38715 4.78729 -0.363239 912.671 
410 1 1.49007 7.44187 2.45415 929.727 
411 1 4.2951 4.7225 2.78167 925.766 
412 1 3.92168 7.66173 -0.448555 896.086 
413 2 4.29955 7.70413 2.27711 921.012 
414 2 4.14511 4.69562 -0.624196 936.016 
415 2 1.34482 7.30177 -0.161368 911.74 
416 2 1.91266 4.73165 2.81695 908.514 
417 1 6.99472 4.80013 -0.388391 937.997 
418 1 7.01884 7.50978 2.62808 945.975 
419 1 10.1157 5.04154 2.68358 936.537 
420 1 10.0323 7.35318 0.223965 911.25 
421 2 10.0385 7.42873 2.80007 938.819 
422 2 10.2362 4.76106 0.0732973 914.102 
423 2 7.40848 7.47852 -0.612594 927.391 
424 2 7.20973 4.81353 2.84955 922.333 
425 1 13.2509 4.61103 -0.408908 911.834 
426 1 13.4934 7.61423 3.07775 907.341 
427 1 16.0591 4.6444 3.30958 945.177 
428 1 15.9392 7.56515 -0.0218664 926.862 
429 2 16.0383 7.72771 3.12387 940.829 
430 2 15.8964 4.68588 -0.353733 941.272 
431 2 13.3471 7.38062 -0.178001 929.32 
432 2 13.043 4.87497 3.36412 940.991 
433 1 18.629 5.18715 -0.306091 946.145 
434 1 18.692 7.88298 3.13429 937.359 
435 1 21.6501 4.45021 2.4997 951.372 
436 1 21.8985 7.55877 0.342703 937.566 
437 2 22.1826 7.60874 2.93405 945.385 
438 2 21.5729 4.39091 -0.200896 947.291 
439 2 19.3331 7.64303 -0.623385 919.051 
440 2 18.9287 5.33887 2.79427 930.915 
441 1 24.7624 4.15983 -0.196747 962.315 
442 1 24.8172 7.0384 3.1288 944.548 
443 1 27.2361 4.54991 2.90803 959.462 
444 1 27.7447 7.7298 -0.391136 965.268 
445 2 27.5462 7.51505 3.21197 956.485 
446 2 27.4426 5.00477 -0.667046 952.053 
447 2 24.855 7.39896 0.284413 951.621 
448 2 24.5454 4.35754 2.96833 968.9 
449 1 30.6553 4.7617 -0.790349 953.316 
450 1 30.3881 7.4221 3.38492 954.702 
451 1 33.3748 4.25415 2.5237 957.794 
452 1 33.0246 7.81331 -0.131722 937.942 
453 2 33.0231 8.00075 2.80803 952.97 
454 2 32.9972 4.49987 0.00279093 945.328 
455 2 30.503 7.47289 -0.509419 960.215 
456 2 30.2905 4.69192 2.54914 949.694 
457 1 36.065 4.95845 -0.400712 965.218 
458 1 35.7348 7.83737 2.92887 959.034 
459 1 38.8765 4.30695 2.91244 955.266 
460 1 38.8836 7.83824 0.219166 980.397 
461 2 38.9496 8.01014 3.11438 939.031 
462 2 39.2331 4.5364 -0.461847 964.78 
463 2 36.1766 7.92162 0.0172076 947.912 
464 2 36.0439 4.59842 2.45313 967.814 
465 1 41.9804 4.58604 -0.352375 986.147 
466 1 41.5754 8.56239 3.01983 964.675 
467 1 44.3152 4.77555 2.64167 973.48 
468 1 44.5393 7.68919 0.155082 978.798 
469 2 44.5937 8.24502 2.82466 980.978 
470 2 45.0465 4.81797 0.0123683 961.457 
471 2 41.4348 8.24098 0.27117 941.342 
472 2 41.6644 4.4191 2.59374 962.043 
473 1 48.3961 4.92752 -0.0107984 973.532 
474 1 47.6161 7.74791 2.70036 980.508 
475 1 50.581 4.77894 2.80486 981.784 
476 1 51.1177 8.08676 0.0638819 982.645 
477 2 50.5781 8.11515 3.00089 986.914 
478 2 50.6159 5.13845 -0.34521 984.461 
479 2 47.8263 7.76286 0.102624 962.781 
480 2 47.6047 4.87655 2.89809 974.506 
481 1 53.3884 4.5615 -0.986333 972.303 
482 1 53.5253 8.33957 2.45311 978.723 
483 1 55.8365 5.1161 2.36538 976.37 
484 1 56.5079 7.9329 -1.01463 991.646 
485 2 56.2717 8.02957 2.21276 989.543 
486 2 55.9233 4.97875 -0.551874 982.439 
487 2 53.2072 7.95394 -0.607648 971.406 
488 2 53.3865 5.13458 2.88232 987.973 
489 1 58.6176 4.52487 -0.00208223 990.049 
490 1 58.9758 7.51497 2.73833 998.657 
491 1 62.2107 4.11532 2.14541 997.048 
492 1 61.5892 8.25866 -0.444547 1008.96 
493 2 62.4493 7.98059 2.65813 995.734 
494 2 61.8193 4.235 -0.317047 974.373 
495 2 59.1576 7.90028 -1.08291 975.882 
496 2 58.7109 4.44908 2.70944 993.057 
497 1 64.6691 4.56624 -0.705899 1020.68 
498 1 64.8463 7.14721 2.24402 999.141 
499 1 68.2021 4.47775 2.60875 1007.9 
500 1 67.8704 7.69695 -0.145055 987.593 
501 2 68.0315 7.51968 2.54114 1007.04 
502 2 67.7857 4.28773 0.0652292 1005.66 
503 2 64.5977 7.50207 -0.243856 1005.22 
504 2 65.0558 4.45347 2.4122 1003.52 
505 1 71.0891 4.55947 0.0204215 1017.78 
506 1 70.9648 7.37944 2.6534 1011.35 
507 1 73.8333 4.4248 3.33844 985.794 
508 1 73.6024 6.93847 -0.650589 1020.31 
509 2 73.5136 7.86593 2.26021 1008.53 
510 2 73.9992 4.634 -1.03433 990.23 
511 2 70.4369 7.94515 -0.466138 994.425 
512 2 71.2866 4.2696 2.57383 1000.26 
513 1 76.5134 3.78786 -0.780296 991.593 
514 1 76.2423 7.49143 2.26735 1030.86 
515 1 78.7661 4.53975 2.47705 1023.03 
516 1 79.5167 7.46283 -0.218907 1021.42 
517 2 79.3505 7.56504 2.38743 1023.96 
518 2 79.1001 4.66964 -0.752481 999.428 
519 2 76.4888 7.33539 -0.341892 1009.39 
520 2 76.1999 4.12685 2.96573 1004.62 
521 1 82.2725 4.30975 -0.990016 1028.41 
522 1 82.3615 7.89623 2.03095 1008.77 
523 1 85.6271 5.30963 2.72915 1016.64 
524 1 85.6028 7.29094 -1.03123 1006.86 
525 2 85.4721 8.0184 2.8198 1015.57 
526 2 84.9799 4.9548 -1.49252 1033.73 
527 2 82.1043 7.5344 -0.36089 1015.73 
528 2 82.8302 4.99716 2.46258 1031.16 
529 1 88.303 4.59316 -1.1878 1029.86 
530 1 88.1278 7.26827 2.73883 1026.26 
531 1 90.8896 4.46458 2.36485 1016.52 
532 1 90.7465 7.08747 -0.203664 1020.16 
533 2 90.8137 7.32293 2.79206 1025.42 
534 2 90.871 4.43841 -0.88244 1028.3 
535 2 88.2739 7.45466 -0.861498 1016.74 
536 2 87.8937 5.13981 2.00276 1041.6 
537 1 93.4833 4.06031 -0.955702 1045.24 
538 1 93.5071 7.7039 2.16259 1032.72 
539 1 96.5815 4.81766 2.49399 1033.58 
540 1 96.8347 7.31164 -1.00161 1028.56 
541 2 96.805 7.21663 1.85922 1045.57 
542 2 96.6395 3.89718 -1.09633 1034.07 
543 2 93.9914 7.60081 -0.753775 1033.01 
544 2 93.4632 4.45591 1.79607 1040.45 
545 1 99.2113 4.3227 -0.426317 1044.35 
546 1 99.5334 7.27697 2.49477 1033.55 
547 1 102.478 4.2908 2.59534 1063.12 
548 1 102.707 7.0404 -0.183127 1064.66 
549 2 102.16 7.12648 2.54646 1050.44 
550 2 102.882 3.93749 -0.788925 1038.3 
551 2 99.5235 7.23208 -0.861532 1045.88 
552 2 99.8322 4.51097 2.23733 1036.59 
553 1 105.444 4.18369 -0.532996 1039.86 
554 1 105.883 7.19791 2.18345 1060.29 
555 1 108.501 4.61595 2.94098 1061.8 
556 1 108.87 7.60242 -0.569052 1063.29 
557 2 108.942 7.39058 2.88593 1068.72 
558 2 108.311 4.03127 -0.868416 1047.55 
559 2 105.694 7.1975 -0.610689 1066.39 
560 2 105.917 4.62443 2.60716 1061.86 
561 1 111.349 4.23726 -0.564543 1035.94 
562 1 111.375 7.52748 2.55381 1056.24 
563 1 113.917 4.34462 2.23365 1077.89 
564 1 114.385 7.99588 -0.714145 1062.88 
565 2 114.775 8.44562 2.62945 1067.89 
566 2 114.602 4.26987 -0.249369 1045.33 
567 2 111.802 7.65457 -0.550091 1060.21 
568 2 111.448 4.05311 1.86107 1036.97 
569 1 117.64 4.70322 -0.528328 1076.46 
570 1 117.17 7.49876 2.25223 1073.3 
571 1 120.211 4.0284 2.3222 1071.61 
572 1 120.266 7.57524 -0.10784 1073.53 
573 2 120.045 8.11907 2.66788 1079.85 
574 2 120.108 4.63399 -0.534196 1069.64 
575 2 116.838 7.63411 -0.857018 1046.01 
576 2 117.917 4.72107 2.50307 1066.13 
577 1 122.647 3.83918 -0.807573 1075.74 
578 1 123.804 6.98527 2.90193 1061.02 
579 1 125.923 3.53792 2.02492 1069.82 
580 1 126.261 6.53346 -0.27462 1077.24 
581 2 126.264 6.84455 2.63051 1078.05 
582 2 125.742 3.55194 -0.332906 1070.13 
583 2 123.045 7.01467 -0.613738 1053.46 
584 2 123.016 4.04481 2.4834 1089.17 
585 1 129.41 3.52346 -0.878797 1079.09 
586 1 128.77 7.05142 2.58908 1071.58 
587 1 132.074 3.94928 2.27831 1085.32 
588 1 131.307 6.95789 -0.922424 1078.5 
589 2 131.752 7.08855 1.90114 1077 
590 2 132.296 4.46018 -0.78981 1074.7 
591 2 128.738 7.57733 -0.661294 1103.08 
592 2 129.264 3.95797 2.30134 1069.84 
593 1 135.032 4.5489 -0.78862 1088.69 
594 1 134.641 7.22337 2.14895 1094.23 
595 1 137.307 4.25183 2.60795 1071.25 
596 1 137.502 7.23429 -0.723322 1102.04 
597 2 137.819 7.23366 2.03052 1094.95 
598 2 138.064 4.05815 -0.758157 1098.95 
599 2 134.626 7.25235 -0.784771 1072.13 
600 2 134.783 4.6266 2.80123 1077.56 
601 1 140.601 4.48982 -0.454203 1107.98 
602 1 140.553 7.66572 2.4218 1116.55 
603 1 143.456 4.23464 2.56935 1103.41 
604 1 144.149 6.75355 -0.777479 1083.81 
605 2 143.567 6.77681 2.3108 1074.34 
606 2 143.96 4.17249 -0.792365 1107.03 
607 2 140.614 7.59717 -0.424427 1101 
608 2 140.97 4.41986 2.66647 1087.76 
609 1 146.295 1.23148 14.4031 1102.94 
610 1 146.291 4.30199 -0.819813 1103.18 
611 1 149.385 4.08759 1.84322 1095.56 
612 1 149.716 6.93676 -0.708305 1093.02 
613 2 149.609 7.42184 2.24588 1082.72 
614 2 149.43 4.1268 -0.699301 1079.64 
615 2 146.597 7.16254 -1.01398 1105.18 
616 2 146.846 4.54854 1.84727 1091.76 
617 1 152.814 4.02393 -0.856721 1083.17 
618 1 152.382 7.46207 1.73322 1088.42 
619 1 154.973 4.55335 2.13481 1076.04 
620 1 155.528 7.51501 -0.996142 1080.01 
621 2 155.337 6.78258 1.61124 1081.17 
622 2 155.608 3.7913 -0.782753 1087.45 
623 2 152.902 7.56653 -0.938223 1082.58 
624 2 152.435 4.40659 1.65477 1091.12 
625 1 158.136 3.91565 -0.999596 1082.81 
626 1 158.222 7.3367 2.48318 1086.65 
627 1 161.485 5.02367 2.15385 1062.38 
628 1 160.836 7.74742 -1.21738 1082.92 
629 2 161.352 7.58072 2.74649 1080.01 
630 2 160.669 4.67677 -0.677085 1056.69 
631 2 158.117 7.93742 -1.1237 1064.38 
632 2 158.786 4.76992 2.33918 1089.39 
633 1 164.525 4.69136 -1.04049 1077.84 
634 1 164.253 7.37904 2.20027 1075.01 
635 1 167.072 5.26803 2.31221 1053.39 
636 1 167.289 8.39261 -0.402607 1037.28 
637 2 167.114 7.8063 2.28914 1033.07 
638 2 166.965 3.87207 -1.48733 1064.19 
639 2 164.685 7.63611 -0.489098 1075.69 
640 2 164.779 4.7781 1.95369 1051.67 
641 1 170.014 5.25246 -1.02214 1063.36 
642 1 169.737 7.62344 2.04949 1043.52 
643 1 172.901 5.00021 2.8416 1049.92 
644 1 172.735 8.23552 -0.472531 1060.16 
645 2 172.737 8.61532 2.68676 1065.41 
646 2 172.476 3.99116 -1.12791 1044.7 
647 2 169.693 7.6133 -0.338499 1052.5 
648 2 170.153 5.30402 2.80743 1066.79 
649 1 175.026 4.20208 -0.381252 1043.04 
650 1 175.973 8.08481 2.79645 1043.35 
651 1 178.562 4.4664 2.31131 1048.68 
652 1 178.645 7.34832 -0.411598 1040.88 
653 2 178.629 7.6609 2.71795 1055.5 
654 2 178.422 4.75333 -0.58107 1046.21 
655 2 175.366 7.59873 0.0805713 1019.62 
656 2 175.637 4.53794 2.47261 1046.96 
657 1 181.759 4.98882 -0.83754 1024.66 
658 1 181.206 7.91024 2.62314 1029.78 
659 1 183.86 4.70119 2.46819 1021.71 
660 1 184.2 7.91571 -1.02075 1050.72 
661 2 184.203 8.08373 1.81704 1041.9 
662 2 184.269 4.63259 -0.546749 1031.27 
663 2 181.492 7.87333 -0.835927 1020.69 
664 2 181.239 4.68712 2.01648 1028.84 
665 1 186.739 5.0603 -0.176359 1024.08 
666 1 187.608 8.62569 2.05573 1037.52 
667 1 190.062 4.68288 2.49041 1017.37 
668 1 190.043 8.59079 -1.01643 1028.91 
669 2 190.455 8.1603 1.87469 1022.14 
670 2 190.257 4.70986 -0.0535749 1044.16 
671 2 187.275 8.40469 -0.415268 1025.97 
672 2 187.002 4.85598 2.72002 1028.27 
673 1 193.186 5.47272 -0.898259 1014.14 
674 1 192.978 8.26396 2.31245 1012.6 
675 1 195.788 5.19278 1.86234 1018.09 
676 1 195.55 8.43863 -0.788239 1016.15 
677 2 195.444 7.74689 1.94456 1018.79 
678 2 195.886 5.07554 -0.777214 1013.32 
679 2 192.766 7.95115 -0.417782 997.654 
680 2 193.269 4.58919 3.09606 1016.84 
681 1 198.446 4.95199 -0.809664 1013.28 
682 1 199.015 7.56543 2.11589 996.941 
683 1 201.291 4.91154 2.5117 1003.25 
684 1 201.635 7.84517 -0.660776 995.682 
685 2 201.702 7.54493 2.64377 1003.71 
686 2 201.339 5.23239 -0.902219 1007.18 
687 2 198.602 7.89246 -0.744329 985.399 
688 2 198.498 5.09607 1.90478 1000.07 
689 1 204.376 5.05502 0.101958 997.293 
690 1 204.137 8.54947 2.83209 1006.99 
691 1 206.816 5.41625 3.22112 992.919 
692 1 206.957 7.6641 -0.325637 1001.12 
693 2 207.115 7.76172 2.42872 1029.93 
694 2 206.548 5.1817 -1.01746 987.296 
695 2 204.442 8.13204 -0.739506 1021.42 
696 2 204.375 5.0575 2.54619 1000.27 
697 1 209.824 5.46742 -0.736313 960.65 
698 1 210.506 8.06258 2.33926 1003.39 
699 1 213.421 5.39636 2.34326 1025.96 
700 1 212.927 7.54131 -0.823164 986.703 
701 2 213.251 7.99168 2.35385 1000.26 
702 2 213.256 5.10152 -0.317608 1011.43 
703 2 210.125 7.9318 -0.683903 987.771 
704 2 209.699 5.22443 2.19941 1003.67 
705 1 215.908 4.45549 -0.771248 1008.52 
706 1 216.265 7.36828 2.20841 1008.47 
707 1 218.825 4.58168 2.41793 991.446 
708 1 219.422 7.64512 -0.12311 965.239 
709 2 218.876 7.72789 2.19172 974.933 
710 2 219.056 4.38238 -0.401719 969.298 
711 2 216.38 7.44483 -0.502765 983.943 
712 2 216.152 4.97641 2.33672 998.754 
713 1 222.012 4.56736 -0.267283 978.559 
714 1 222.197 7.44445 2.26555 960.501 
715 1 224.295 4.5048 2.31321 978.666 
716 1 225.184 7.60194 -0.239791 974.315 
717 2 224.714 7.51024 2.44509 974.222 
718 2 225.121 4.92853 -0.576519 979.107 
719 2 221.863 7.38806 -0.571669 979.951 
720 2 221.767 4.80977 2.62006 984.062 
721 1 227.847 4.72464 -0.443698 981.471 
722 1 227.783 7.74431 2.07127 1004.22 
723 1 230.509 4.26744 2.92275 967.829 
724 1 230.54 7.83988 -0.373254 978.51 
725 2 230.271 7.66846 2.42291 956.19 
726 2 230.16 4.72107 -0.436414 975.98 
727 2 227.656 7.72898 -0.336936 982.792 
728 2 227.67 4.36184 2.49401 978.677 
729 1 233.16 4.96236 -0.759587 961.773 