ITEM: TIMESTEP
1000000
ITEM: NUMBER OF ATOMS
8400
ITEM: BOX BOUNDS pp pp pp
-5.9099547646241319e+00 2.8359995476463484e+02
-2.1446273254920634e+00 4.0174627325491812e+01
-1.7757301867509554e+00 1.6325730186751606e+01
ITEM: ATOMS id type x y z f_TolTpA 
1 1 -4.02887 -1.61768 -0.471511 891.702 
2 1 -4.3355 1.23806 2.28295 905.411 
3 1 -1.2318 -1.26749 2.33893 902.12 
4 1 -1.355 2.01359 -0.570224 915.176 
5 2 -1.14468 1.91034 2.08742 891.513 
6 2 -1.08099 -1.68947 -1.06565 891.353 
7 2 -4.16873 1.51789 -0.463316 893.239 
8 2 -3.83893 -1.36377 2.68317 906.575 
9 1 1.5997 -1.0072 -0.608092 919.311 
10 1 1.70706 1.6719 2.63217 903.679 
11 1 4.38056 -1.29037 2.87049 908.98 
12 1 4.06241 1.36776 -0.656374 922.138 
13 2 4.24722 1.79073 1.91497 903.684 
14 2 3.98944 -1.35868 -0.487114 907.179 
15 2 1.41353 1.96779 -0.448749 894.644 
16 2 1.70333 -1.40835 2.4294 881.117 
17 1 7.26324 -1.72144 -0.784833 941.4 
18 1 7.22492 1.20905 2.6205 919.941 
19 1 10.2114 -1.16174 1.73277 921.074 
20 1 10.0334 1.9858 -0.478418 909.431 
21 2 10.1932 1.09764 2.79505 911.244 
22 2 10.1725 -1.5995 -1.08435 913.869 
23 2 6.92569 1.98378 -0.787623 929.977 
24 2 6.93069 -1.34866 2.10984 910.069 
25 1 13.7127 -0.77738 -0.472791 918.347 
26 1 13.1763 2.03874 2.3951 924.9 
27 1 16.5014 -1.08444 2.74007 903.935 
28 1 16.7481 1.68582 -0.39469 901.731 
29 2 16.2205 1.8317 2.2904 897.305 
30 2 16.496 -1.24081 -0.692709 923.999 
31 2 13.4556 1.69661 -0.641529 919.898 
32 2 13.3951 -1.26327 2.38629 922.109 
33 1 19.1256 -0.936043 -0.0751285 937.641 
34 1 19.0342 2.45447 2.26047 923.204 
35 1 21.9403 -1.79666 2.40883 926.263 
36 1 22.3091 1.8716 -0.881546 944.805 
37 2 21.5598 1.8191 2.05753 920.076 
38 2 21.8966 -1.38963 -0.603113 951.401 
39 2 19.1149 1.60637 -0.886545 954.606 
40 2 19.2027 -1.14907 2.88549 914.415 
41 1 24.4273 -1.56862 -0.347263 926.607 
42 1 24.5719 1.86428 2.35232 930.397 
43 1 27.2459 -1.25302 2.50648 931.677 
44 1 27.4328 1.28134 -0.210254 937.773 
45 2 27.2868 1.92168 2.29357 935.351 
46 2 28.0056 -1.737 -0.184925 933.386 
47 2 24.6281 1.3354 -0.296172 921.629 
48 2 24.3088 -1.34518 2.67355 923.515 
49 1 30.3431 -1.98243 -0.767 952.139 
50 1 30.8163 1.25861 2.27347 948.181 
51 1 33.3839 -2.07472 2.03782 969.352 
52 1 33.4209 1.79997 -1.35268 957.038 
53 2 33.3188 1.14083 2.23242 963.949 
54 2 33.0258 39.8353 -0.689521 943.827 
55 2 29.996 1.23928 -0.833438 933.692 
56 2 30.8359 -1.71232 2.97667 948.772 
57 1 36.3561 -1.24723 -1.25599 940.521 
58 1 35.7256 1.46816 2.02179 942.048 
59 1 39.0212 -1.49151 1.99476 963.672 
60 1 38.5301 1.71954 -1.23795 966.474 
61 2 38.929 2.39913 1.23533 978.857 
62 2 38.9464 -1.02368 -0.947635 977.902 
63 2 35.8485 1.66127 -0.293539 939.64 
64 2 36.1586 -1.83343 2.55123 957.596 
65 1 41.6084 -1.32875 -0.139939 952.765 
66 1 41.3059 1.70649 2.28561 963.427 
67 1 44.3168 -1.00282 2.23179 964.075 
68 1 44.5281 1.27084 -0.662916 966.084 
69 2 44.744 1.62781 2.01264 980.598 
70 2 44.1182 -1.43851 -0.809707 985.111 
71 2 41.842 1.73985 -0.690547 954.928 
72 2 41.4685 -1.66987 2.40153 966.066 
73 1 47.2276 -1.69322 -0.329648 971.612 
74 1 47.7312 1.63756 2.13016 981.555 
75 1 50.2613 -1.21566 2.58618 980.999 
76 1 50.4458 1.14438 -0.744316 983.634 
77 2 50.7968 1.62885 2.42158 984.505 
78 2 50.2555 -1.46407 -0.38924 979.37 
79 2 47.5862 1.11406 -0.474958 972.293 
80 2 47.4189 -1.31714 2.43965 969.333 
81 1 53.0625 -2.01401 -0.677534 999.493 
82 1 53.4718 1.35007 1.90559 976.365 
83 1 55.9158 -2.07876 2.98523 974.076 
84 1 56.2784 1.51386 -0.463162 954.216 
85 2 56.0742 1.1398 2.72224 951.59 
86 2 55.8237 -1.5313 -0.461906 982.759 
87 2 52.948 1.46666 -0.779197 982.956 
88 2 52.9097 -1.05155 2.69732 972.858 
89 1 59.0824 -1.37992 -0.27895 972.843 
90 1 58.9482 1.29445 3.19025 968.49 
91 1 61.8374 -1.58498 2.30867 972.258 
92 1 61.8855 1.49487 -0.525742 994.347 
93 2 61.5515 1.59536 2.42153 982.325 
94 2 61.9135 -1.41643 -0.587633 984.956 
95 2 59.0999 1.30588 -0.809031 990.251 
96 2 59.3667 -1.42608 2.85777 999.191 
97 1 64.8208 -1.49474 -0.629042 955.801 
98 1 64.6779 1.51048 2.91657 980.919 
99 1 67.7393 -1.87113 2.12105 1002.34 
100 1 67.4014 1.42485 -0.625951 996.018 
101 2 67.7509 1.22406 3.21018 987.89 
102 2 67.8886 -1.59254 -0.390178 992.932 
103 2 65.0315 1.48751 -0.23685 977.199 
104 2 64.5713 -1.86884 2.12098 1007.12 
105 1 70.2265 -2.02336 -0.858807 986.437 
106 1 70.3905 1.57557 2.63872 1000.47 
107 1 73.4159 -1.5184 2.50039 981.284 
108 1 73.3082 1.64697 -0.28839 989.154 
109 2 73.2948 1.3453 2.72428 992.994 
110 2 73.0036 -1.53478 -0.389295 988.786 
111 2 70.2627 1.48828 -0.372408 970.36 
112 2 70.3156 -1.74667 2.7058 999.506 
113 1 76.3967 -1.62294 -0.227874 988.086 
114 1 75.9022 1.31986 2.55307 984.19 
115 1 79.0847 -1.80093 2.61433 987.224 
116 1 79.0607 1.35502 -0.281281 1014.15 
117 2 79.3843 1.16502 2.33928 1027.67 
118 2 79.1244 -1.68514 -0.339523 1015.46 
119 2 75.9019 1.20254 -0.199639 994.719 
120 2 76.4341 -1.54864 2.39307 1004.4 
121 1 82.3407 -1.62243 -0.443875 1022.4 
122 1 82.0286 1.01943 2.72969 1000.05 
123 1 85.6452 -1.41561 2.61753 1010.49 
124 1 84.9958 1.54328 -0.533074 1007.22 
125 2 84.8424 1.42979 2.39215 1017 
126 2 85.1149 -1.55141 -0.274132 1020.34 
127 2 82.2926 1.30962 -0.670855 1003.81 
128 2 81.8128 -2.03179 2.33046 1020.81 
129 1 88.033 -0.835238 -0.386623 1018.04 
130 1 88.1077 1.78778 2.51193 1027.13 
131 1 90.9308 -0.923737 2.51968 1044.48 
132 1 91.7502 1.79965 0.280722 1032.26 
133 2 90.8503 1.85125 2.58524 1023.88 
134 2 91.0959 -0.826097 0.0169988 1021.97 
135 2 87.4814 1.84844 -0.00879044 1018.06 
136 2 88.3286 -1.06246 2.61105 1042 
137 1 93.868 -1.28396 -0.367346 1044.05 
138 1 94.2007 1.93567 3.23895 1021.33 
139 1 96.9079 -1.34108 2.92562 1042.15 
140 1 96.8164 1.76843 -0.194592 1049.53 
141 2 97.5106 1.71397 2.33982 1045.5 
142 2 96.8732 -1.63688 0.263112 1043.53 
143 2 94.4756 2.42312 0.183165 1038.55 
144 2 93.5479 -2.06873 3.10407 1040.6 
145 1 99.672 -1.42934 -0.26462 1034.68 
146 1 100.057 1.71758 2.58758 1031.38 
147 1 102.661 -1.3205 2.74842 1038.95 
148 1 102.648 1.49446 -0.82219 1029.77 
149 2 102.719 1.76441 2.40724 1058.91 
150 2 102.428 -1.27996 0.0531446 1046.74 
151 2 99.6468 1.52415 -0.670606 1040.94 
152 2 99.8446 -0.963743 3.13827 1017.86 
153 1 105.783 -1.19883 -0.577467 1044.76 
154 1 105.404 1.23586 2.11331 1042.91 
155 1 109.21 -1.59174 1.91367 1051.59 
156 1 108.209 2.28082 -0.747634 1035.62 
157 2 108.781 1.66289 2.31174 1052.33 
158 2 108.415 -0.959551 -0.796292 1037.45 
159 2 105.466 1.97451 -0.690487 1047.36 
160 2 105.95 -1.56059 2.12327 1039.53 
161 1 111.973 -1.06675 -0.955532 1050.99 
162 1 111.047 1.88376 1.91603 1072.58 
163 1 114.159 -1.37417 2.70593 1040.24 
164 1 114.259 1.91229 -0.734754 1047.22 
165 2 114.433 1.67487 2.78456 1063.55 
166 2 114.471 -1.84994 -0.432922 1058.28 
167 2 111.617 1.91439 -0.639356 1059.48 
168 2 111.703 -0.830749 2.5056 1055.08 
169 1 116.805 -1.42057 0.0241341 1060.95 
170 1 117.26 1.75062 2.95898 1057.6 
171 1 120.464 -1.00456 2.63718 1056.51 
172 1 120.159 1.42955 -0.143346 1050.61 
173 2 120.712 1.71922 2.30758 1037.33 
174 2 120.707 -1.334 -0.00372579 1077.87 
175 2 117.317 1.35251 -0.729413 1061.95 
176 2 117.005 -1.17526 2.70373 1054.45 
177 1 123.42 -0.960807 0.0724518 1050.03 
178 1 123.23 2.12261 2.24129 1056.22 
179 1 126.407 -0.874079 2.71975 1073.51 
180 1 126.579 1.64593 -0.493495 1076.92 
181 2 126.255 2.0741 2.30087 1113.21 
182 2 126.301 -1.20321 0.108628 1092.18 
183 2 123.914 1.58638 -0.699308 1057.2 
184 2 123.519 -1.18439 2.71507 1085.67 
185 1 128.91 -0.866925 0.125354 1056.62 
186 1 129.497 1.91643 2.67503 1103.48 
187 1 132.375 -1.48078 2.60074 1085.43 
188 1 131.399 2.02456 -0.713724 1088.87 
189 2 131.927 1.44813 2.38965 1087.61 
190 2 131.122 -0.878428 -0.746996 1090.37 
191 2 128.969 2.02653 -0.20438 1061.62 
192 2 129.501 -1.23489 2.85587 1051.54 
193 1 134.23 -0.430081 -0.60816 1091.91 
194 1 135.059 2.08134 2.70194 1094.49 
195 1 137.518 -1.59349 2.23979 1112.95 
196 1 138.092 1.16254 -0.732343 1110.86 
197 2 137.381 1.52935 2.78726 1108.06 
198 2 137.552 -1.59913 -0.646952 1110.73 
199 2 134.966 1.88176 0.0296759 1105.89 
200 2 134.867 -1.77263 2.528 1089.11 
201 1 141.102 -1.29565 -0.500664 1106.74 
202 1 140.37 1.92332 2.87342 1122.83 
203 1 142.654 -1.51002 3.58703 1101.73 
204 1 143.455 1.46201 0.0632518 1113.11 
205 2 142.843 1.37061 2.81813 1122.18 
206 2 144.126 -1.77948 -0.553519 1115.41 
207 2 140.73 1.39826 -0.195911 1091.89 
208 2 140.094 -1.37845 2.96753 1138.72 
209 1 146.723 -1.47232 0.0423771 1103.51 
210 1 146.265 1.70995 2.92797 1118.95 
211 1 149.867 -1.36195 2.23183 1094.01 
212 1 148.651 1.90284 -0.713868 1089.38 
213 2 149.596 2.07143 2.81521 1075.51 
214 2 149.24 -0.750794 -0.103597 1100.26 
215 2 146.005 1.95088 0.257377 1090.88 
216 2 146.52 -0.835133 2.66512 1095.17 
217 1 152.523 -1.15764 -0.677771 1078.86 
218 1 152.124 2.3472 2.75986 1066.86 
219 1 154.751 -1.30535 2.64546 1083.1 
220 1 155.111 1.33625 0.0332127 1071.95 
221 2 155.243 1.7797 2.57777 1087.13 
222 2 155.017 -1.20447 -0.334499 1057.61 
223 2 152.257 2.05373 -0.744475 1075.82 
224 2 152.188 -1.07697 2.25085 1070.13 
225 1 158.234 -1.03735 -0.08777 1061.34 
226 1 158.255 1.19883 2.78534 1085.41 
227 1 161.172 -1.9381 2.90312 1075.48 
228 1 161.211 1.53014 -0.284255 1052.47 
229 2 161.104 1.42945 2.95575 1071.59 
230 2 161.154 -1.96349 0.181456 1068.02 
231 2 158.297 1.47665 -0.210712 1050.12 
232 2 158.031 -1.76562 2.35105 1075.93 
233 1 163.483 -1.43778 -0.596353 1065.33 
234 1 163.508 1.40179 2.55819 1073.77 
235 1 166.41 -1.93068 2.76655 1079.36 
236 1 166.765 1.70489 -0.588966 1082.06 
237 2 166.662 1.93478 2.41413 1076.38 
238 2 167.226 -1.20963 -0.678107 1056.87 
239 2 163.802 1.75644 -0.492529 1076.81 
240 2 163.776 -1.2875 2.05345 1055.8 
241 1 169.725 -0.775339 0.346169 1053.43 
242 1 169.775 1.8153 2.50588 1074.04 
243 1 172.445 -1.51118 2.14998 1075.22 
244 1 172.181 1.95227 -0.349611 1096.97 
245 2 172.379 1.77198 2.5841 1053.24 
246 2 172.639 -0.406304 -0.321405 1078.87 
247 2 169.71 1.64481 -0.24959 1073.14 
248 2 169.733 -1.41013 2.80272 1057.47 
249 1 175.304 -1.56743 -0.804898 1067.65 
250 1 175.418 0.829862 2.55766 1050.96 
251 1 178.71 -1.33611 2.22316 1058.66 
252 1 178.62 1.63704 -0.0905997 1054.42 
253 2 178.191 1.29646 2.87981 1041.74 
254 2 178.766 -1.40214 -0.516961 1044.39 
255 2 175.537 1.458 -0.0652197 1047.77 
256 2 175.287 -1.63374 2.71021 1064.49 
257 1 181.936 -1.13802 0.00590151 1047.59 
258 1 181.822 1.9159 2.80869 1058.53 
259 1 184.253 -1.62578 2.75252 1025.64 
260 1 184.863 1.84151 -0.473093 1036.92 
261 2 184.587 1.58286 2.39998 1029.62 
262 2 184.494 -1.4503 -1.06457 1059.86 
263 2 182.209 1.45971 -0.204524 1063.33 
264 2 181.203 -1.19827 2.76948 1041.03 
265 1 187.252 -1.44129 -0.941649 1071.55 
266 1 187.229 1.7898 2.37698 1046.1 
267 1 189.742 -0.840352 2.53607 1031.96 
268 1 190.002 1.92792 -0.839943 1031.05 
269 2 189.972 2.38262 2.77757 1030.41 
270 2 189.924 -1.48917 -0.857401 1022.04 
271 2 187.294 2.02662 -0.725207 1053.4 
272 2 187.206 -0.913229 2.15403 1027.63 
273 1 193.361 -0.985039 -0.406629 1012.76 
274 1 193.336 1.80423 2.74848 1016.2 
275 1 195.764 -0.921917 2.48321 997.625 
276 1 196.242 1.50213 -0.838758 1021.68 
277 2 195.9 2.1996 2.34716 1019.7 
278 2 196.096 -1.40562 -0.504413 1028.61 
279 2 192.956 1.65531 -0.719205 1029.73 
280 2 193.066 -0.762931 2.32512 1021.86 
281 1 198.815 -1.86179 -0.904442 1044.56 
282 1 198.372 1.82816 2.29299 1019.3 
283 1 201.731 -0.791804 1.7597 1022.91 
284 1 202.186 2.03662 -0.401739 992.543 
285 2 202.248 1.97001 2.19427 1001.33 
286 2 201.622 -1.47914 -0.800541 996.302 
287 2 199.37 2.08974 -0.0536288 1034.25 
288 2 198.402 -0.677929 1.77099 995.614 
289 1 204.24 -1.39933 -1.03421 1012.34 
290 1 204.727 1.61267 2.40774 1024.55 
291 1 207.628 -1.29862 2.64437 1002.76 
292 1 207.926 1.43568 -0.660865 1008.4 
293 2 207.921 1.47033 2.38977 1007.98 
294 2 207.422 -1.51173 -0.369247 1014.63 
295 2 205.087 1.91473 -0.301936 1016.95 
296 2 204.05 -1.50828 2.08207 1027.86 
297 1 210.522 -1.46911 -0.487943 987.694 
298 1 210.652 1.85931 2.71356 977.417 
299 1 213.036 -0.57141 2.35002 1005.39 
300 1 213.439 1.33382 -0.444975 989.468 
301 2 213.165 1.97029 2.37982 997.788 
302 2 213.246 -1.35007 -0.31882 986.855 
303 2 210.475 1.68322 -0.512125 996.158 
304 2 210.56 -1.38393 2.44109 986.556 
305 1 216.146 -1.25649 -0.741731 980.964 
306 1 215.892 1.93314 2.65289 983.474 
307 1 219.005 -1.3128 2.32306 981.752 
308 1 219.021 1.54852 -0.815994 994.744 
309 2 218.72 1.89106 2.50273 997.534 
310 2 218.936 -1.24111 -1.06149 997.312 
311 2 216.222 1.69613 -0.440849 976.361 
312 2 216.412 -1.14084 2.37808 992.707 
313 1 221.396 -1.28514 -0.709347 993.415 
314 1 221.646 1.67592 2.37607 980.943 
315 1 224.259 -1.03924 2.41082 992.183 
316 1 225.213 1.35556 -0.564984 1005.81 
317 2 224.73 1.7598 2.19869 988.178 
318 2 224.933 -1.70405 -0.133563 987.93 
319 2 221.854 1.46397 -0.331557 1011.43 
320 2 221.665 -1.23075 2.51685 995.591 
321 1 227.576 -2.1377 -0.388162 969.91 
322 1 227.337 1.12669 2.37388 978.005 
323 1 230.733 -1.66125 2.64688 968.89 
324 1 230.08 1.00395 -0.88193 988.941 
325 2 230.023 2.20588 2.19048 994.515 
326 2 230.319 -1.8611 -0.714968 989.302 
327 2 227.415 1.58685 -0.140534 994.249 
328 2 228.043 -1.79458 2.61484 1000.01 
329 1 233.276 -1.51218 -0.764786 974.26 
330 1 233.288 1.6688 1.9013 997.887 
331 1 235.634 -1.97239 2.37287 977.417 
332 1 236.932 1.33518 -0.455389 984.856 
333 2 236.617 1.45146 2.51437 976.596 
334 2 236.724 -1.47164 -0.205136 964.809 
335 2 232.46 1.38133 -0.539551 977.314 
336 2 233.231 -1.02184 2.15652 956.79 
337 1 239.316 -1.35433 -0.359107 964.562 
338 1 239.378 1.36481 2.95211 981.754 
339 1 242.551 -1.39871 2.80415 956.694 
340 1 242.381 1.50332 -0.310494 972.417 
341 2 242.33 1.85598 2.53163 984.254 
342 2 242.172 -1.15271 -0.842493 966.26 
343 2 239.684 1.44989 -0.190994 973.879 
344 2 239.724 -1.38528 2.77468 961.17 
345 1 245.572 -1.60728 -0.917922 981.365 
346 1 245.503 1.43665 2.36262 956.622 
347 1 247.777 -1.65636 2.22446 980.133 
348 1 247.562 1.24539 -1.05903 970.488 
349 2 248.235 1.28488 1.77247 979.277 
350 2 248.051 -1.44947 -0.836804 968.534 
351 2 245.068 0.999292 -0.341728 943.702 
352 2 245.244 -1.58316 2.58843 972.774 
353 1 251.272 -1.60368 -1.14388 959.388 
354 1 252.008 0.934931 1.48765 961.341 
355 1 254.14 -2.02911 2.28914 955.64 
356 1 254.148 1.51623 -1.47022 947.958 
357 2 254.686 1.23856 2.03747 964.356 
358 2 253.89 -1.64739 -0.905759 962.161 
359 2 251.223 1.5752 -0.900463 951.347 
360 2 251.477 -1.41484 1.79228 966.555 
361 1 256.902 -1.051 -1.29324 962.637 
362 1 257.189 1.65319 2.52011 974.561 
363 1 259.23 -1.94606 1.84061 949.92 
364 1 259.711 0.9058 -0.496984 956.242 
365 2 260.253 1.27815 2.24059 963.406 
366 2 259.709 -1.7991 -0.981557 957.294 
367 2 257.373 1.45929 -0.913911 964.446 
368 2 256.75 -2.11178 2.19789 986.538 
369 1 262.425 -1.97034 -0.734389 945.165 
370 1 262.755 1.08237 2.61866 946.053 
371 1 264.942 -1.62344 2.31631 934.339 
372 1 265.211 1.98914 0.425268 952.491 
373 2 265.278 1.7363 3.08415 953.95 
374 2 265.142 40.161 -1.33605 943.307 
375 2 262.891 1.29545 -0.819656 953.226 
376 2 262.605 -1.64565 1.78485 942.539 
377 1 268.335 -1.58384 -0.86119 935.151 
378 1 268.144 1.17658 2.38033 910.187 
379 1 271.043 -1.65678 2.03745 933.12 
380 1 271.117 1.36878 -0.487494 941.715 
381 2 270.844 1.27445 2.39378 918.603 
382 2 271.158 -1.72835 -0.633549 938.665 
383 2 267.635 1.46591 -0.57232 913.68 
384 2 268.385 -1.60618 2.26182 939.387 
385 1 274.35 -1.40716 -0.484942 914.828 
386 1 273.417 1.27565 2.05355 931.489 
387 1 276.378 -1.44114 2.21114 924.843 
388 1 276.425 1.5162 -0.961113 938.509 
389 2 276.587 1.55501 2.41237 936.102 
390 2 276.704 -1.83507 -0.663472 908.663 
391 2 273.835 1.59055 -0.723087 921.982 
392 2 273.667 -1.73704 2.16806 922.918 
393 1 279.421 -1.5804 -0.676135 901.686 
394 1 279.714 1.24545 2.68207 926.47 
395 1 282.333 -1.50873 2.12031 907.813 
396 1 282.651 1.53768 -0.638344 931.127 
397 2 282.393 1.5451 2.22542 919.94 
398 2 282.544 -1.627 -0.980304 891.138 
399 2 279.581 1.57679 -0.405222 927.735 
400 2 279.641 -1.66031 1.84328 916.292 
401 1 -4.32049 4.57241 -1.07437 898.655 
402 1 -4.02074 7.45709 2.58741 914.949 
403 1 -1.11981 4.45775 2.74947 871.349 
404 1 -1.51577 7.63678 -0.564936 903.483 
405 2 -1.60058 7.10097 2.70759 905.562 
406 2 -1.07706 4.84518 -0.936745 888.213 
407 2 -4.18951 7.7263 -0.964468 907.349 
408 2 -4.2797 4.29418 2.83617 898.982 
409 1 1.66576 4.90763 -0.259793 904.907 
410 1 1.46863 7.51088 2.23607 896.645 
411 1 4.60896 4.59338 2.57985 902.326 
412 1 4.15236 8.17599 -0.608815 900.965 
413 2 4.47501 8.27877 2.15989 917.833 
414 2 4.23845 5.07053 -0.562491 921.08 
415 2 1.60196 7.80313 -0.52189 906.102 
416 2 1.50395 4.16273 2.50333 905.246 
417 1 7.10968 4.83001 -0.770101 910.354 
418 1 7.33978 7.97902 2.15272 899.255 
419 1 10.1456 4.97295 2.52911 895.923 
420 1 10.4625 7.92304 -0.806925 899.18 
421 2 10.3329 8.14553 2.39555 924.929 
422 2 9.91686 4.35574 -0.169786 933.233 
423 2 7.55797 7.81608 -0.413575 920.709 
424 2 7.21284 5.00477 2.69692 914.185 
425 1 13.4244 4.8193 -0.920296 913.491 
426 1 13.14 7.3165 2.96395 902.6 
427 1 16.1697 4.80669 2.65555 929.487 
428 1 15.8223 7.53734 -0.777739 923.277 
429 2 15.9188 7.25052 2.54497 908.029 
430 2 16.3501 4.80922 -0.866045 928.102 
431 2 13.0061 7.59333 -1.11888 896.485 
432 2 13.1224 4.59834 2.22466 927.002 
433 1 18.9375 5.01235 -1.3333 942.082 
434 1 18.5778 7.58856 2.47666 919.545 
435 1 21.5896 4.73457 2.01532 930.65 
436 1 21.6561 7.37749 -0.827785 955.665 
437 2 21.737 7.39534 1.93269 928.984 
438 2 21.7071 4.98134 -1.34967 924.74 
439 2 18.7778 7.55622 -0.413132 933.057 
440 2 18.7416 4.81383 2.71479 916.285 
441 1 25.0911 5.59829 -0.753341 931.535 
442 1 24.7073 7.98811 2.02731 937.975 
443 1 27.6515 4.82168 1.90011 930.898 
444 1 27.9111 8.10618 -0.570977 955.119 
445 2 28.1143 7.49951 2.30751 930.59 
446 2 27.6384 5.56498 -1.71032 944.121 
447 2 24.0505 8.23319 -1.1256 954.562 
448 2 24.9777 4.97461 1.83113 912.214 
449 1 30.6073 4.86915 -0.76525 924.613 
450 1 30.3901 8.24577 2.0183 953.071 
451 1 33.1538 4.31703 2.34086 942.168 
452 1 33.2414 7.44221 -0.52458 954.904 
453 2 33.5858 7.63671 2.71706 945.443 
454 2 33.5893 4.29523 -0.907874 947.712 
455 2 30.7007 7.5018 -0.382059 940.624 
456 2 30.1855 4.50134 2.01223 945.061 
457 1 35.9772 4.63658 -0.127272 952.875 
458 1 36.3585 7.38428 1.98961 941.85 
459 1 39.2141 4.41833 2.58792 950.774 
460 1 39.0757 7.56167 -0.743589 966.196 
461 2 38.9314 7.33131 2.17492 957.875 
462 2 38.7204 5.00964 -1.17642 958.247 
463 2 36.2598 7.95458 -0.969286 941.896 
464 2 35.6517 4.60104 2.74439 949.629 
465 1 41.6601 4.36203 -0.598004 947.909 
466 1 41.8821 7.48042 2.39448 989.435 
467 1 44.5953 4.48764 1.91271 972.528 
468 1 44.1852 7.21796 -1.06241 970.539 
469 2 44.5889 7.12911 3.05124 966.831 
470 2 44.3276 4.71926 -0.5288 952.268 
471 2 41.6957 7.44661 -0.738 983.981 
472 2 42.0055 4.52999 2.11608 955.421 
473 1 47.3142 4.36016 -0.973132 976.714 
474 1 47.9075 7.82198 2.31876 958.59 
475 1 50.6913 4.06784 2.23814 976.694 
476 1 50.5066 7.30042 0.0761108 971.92 
477 2 50.4534 7.50614 2.65088 965.948 
478 2 50.0759 4.21546 -0.266631 980.493 
479 2 47.9087 7.46254 -0.334142 989.017 
480 2 47.5974 4.11468 2.41602 982.758 
481 1 53.5422 4.36049 -0.480949 973.331 
482 1 53.1376 7.08839 2.65058 960.725 
483 1 56.1014 4.41651 2.51462 978.87 
484 1 55.9192 7.59017 -0.212427 957.153 
485 2 55.802 7.29724 2.73691 1000.97 
486 2 56.4884 4.26972 -0.200328 990.726 
487 2 53.2165 6.90473 -0.061573 972.993 
488 2 53.4806 4.27269 2.5258 981.957 
489 1 58.9742 4.56598 -0.456869 971.957 
490 1 58.4073 7.38992 3.20947 971.812 
491 1 61.7226 4.60717 2.51352 973.956 
492 1 61.563 7.425 -0.473464 983 
493 2 61.4845 7.48143 2.37031 986.984 
494 2 61.6895 4.16572 -0.20915 988.365 
495 2 58.5778 7.28181 0.125269 962.577 
496 2 58.4556 4.07424 3.10752 988.826 
497 1 64.9955 4.57216 -0.0704492 982.538 
498 1 64.8434 7.42021 2.84879 978.961 
499 1 67.4419 4.92055 3.26729 995.149 
500 1 67.5655 7.61161 -0.379468 977.928 
501 2 67.3957 7.35794 3.37914 979.883 
502 2 67.8371 4.37057 -0.68745 985.116 
503 2 64.7489 7.11341 -0.18573 978.744 
504 2 64.9136 4.52411 2.72601 1008.1 
505 1 70.1431 4.4458 0.0169438 980.129 
506 1 70.0549 7.36762 3.03339 980.766 
507 1 73.2835 4.2331 2.80702 983.291 
508 1 73.2906 7.1412 0.469041 990.994 
509 2 73.4889 7.22509 2.85829 976.389 
510 2 73.109 4.52665 -0.000261506 992.526 
511 2 70.269 7.66561 0.221573 974.466 
512 2 70.842 4.5892 2.88288 989.175 
513 1 75.7975 4.3882 -0.427782 989.633 
514 1 76.2839 6.94281 3.02029 1008.61 
515 1 79.4593 3.9654 2.06146 1001.02 
516 1 79.344 6.97269 0.112716 998.662 
517 2 79.3104 7.33372 2.81092 989.503 
518 2 79.7443 4.11603 -0.520202 993.344 
519 2 76.0939 7.18093 0.369599 1014.17 
520 2 76.4689 4.18632 2.14252 1010.19 
521 1 82.327 4.11334 -0.50794 998.576 
522 1 81.8723 8.02795 2.68218 1007.19 
523 1 85.0742 4.26137 2.18997 1038.28 
524 1 85.17 8.07486 0.331535 1028.42 
525 2 84.7231 7.35583 2.851 1030.75 
526 2 85.1836 4.86373 -0.316843 1028.3 
527 2 81.973 7.50822 0.117693 995.434 
528 2 82.4622 3.90534 2.73432 1004.79 
529 1 88.6662 4.63767 -0.602759 1027.57 
530 1 88.0221 7.69611 2.53718 1011.95 
531 1 91.1306 4.45686 2.5004 1020.76 
532 1 91.335 7.5716 -0.230001 998.752 
533 2 90.6792 8.23779 2.36254 1020.13 
534 2 91.3461 4.69396 -0.0178248 1006.41 
535 2 88.1176 7.50055 -0.167907 1015.94 
536 2 88.5305 4.90014 2.67221 1000.97 
537 1 94.3664 4.84477 -0.297535 1019.47 
538 1 94.0983 8.07644 2.82264 1015.15 
539 1 97.1971 4.87923 1.96737 1035.54 
540 1 96.5554 8.12026 0.0661826 1007.84 
541 2 96.5788 7.79107 2.84192 1033.07 
542 2 97.168 4.77867 -0.757763 1006.11 
543 2 93.9911 7.65675 -0.151786 1025.9 
544 2 94.2385 4.49447 3.00201 1006.75 
545 1 99.8128 4.72573 -0.64438 1024.44 
546 1 99.5817 7.40909 2.55556 1026.4 
547 1 102.778 4.95621 2.22075 1051.58 
548 1 102.425 7.7568 -0.0265095 1049.52 
549 2 102.57 7.71491 2.65434 1036.45 
550 2 102.708 4.63743 -0.626769 1022.48 
551 2 99.6226 7.51691 -0.106178 1023.84 
552 2 100.267 4.5649 2.53285 1041.47 
553 1 105.157 5.06809 -1.11233 1021.27 
554 1 105.849 7.66849 2.77575 1047.2 
555 1 107.832 4.91849 2.3134 1032.85 
556 1 108.754 7.94976 -0.502911 1054.7 
557 2 108.383 7.60065 2.52743 1052.44 
558 2 108.211 4.91134 -0.853379 1039.72 
559 2 105.688 7.96087 -0.918515 1035.28 
560 2 105.395 4.71296 1.55523 1036.69 
561 1 111.558 4.88042 -0.704357 1034.63 
562 1 111.611 7.91027 2.30248 1058.77 
563 1 114.083 5.05185 2.54042 1070.5 
564 1 114.462 7.61308 -0.0808528 1056.12 
565 2 114.948 7.89094 2.35421 1058.94 
566 2 114.558 4.77235 -0.216057 1054.88 
567 2 111.6 7.88196 -0.851472 1056.75 
568 2 111.566 4.84965 2.26824 1053.4 
569 1 117.521 4.89688 -0.100469 1043.87 
570 1 117.597 7.85843 1.86693 1061.96 
571 1 120.048 4.77942 2.6131 1056.54 
572 1 120.148 8.12633 -0.0700097 1070.8 
573 2 120.236 7.24431 2.415 1067.68 
574 2 120.443 4.53619 -0.378236 1045.02 
575 2 117.709 7.57888 -0.995576 1054.66 
576 2 117.211 4.62578 2.66641 1055.41 
577 1 122.979 4.91156 -0.0762979 1080.05 
578 1 123.6 8.18175 2.86328 1070.18 
579 1 126.247 4.5557 2.48602 1094.79 
580 1 126.133 8.03044 -0.184228 1060.75 
581 2 126.34 7.9309 2.52401 1084.91 
582 2 126.292 4.70475 -0.672134 1086.29 
583 2 123.708 7.80669 -0.112933 1066.41 
584 2 123.432 5.15074 2.73301 1068.36 
585 1 129.154 4.95822 -0.257569 1097.9 
586 1 129.068 7.44777 2.3557 1053.07 
587 1 132.208 4.80507 2.73129 1103.33 
588 1 131.652 7.62118 0.0789375 1098.52 
589 2 132.26 7.72302 2.7702 1097.74 
590 2 131.941 5.22994 -0.229764 1064.78 
591 2 129.226 7.83353 -0.361456 1083 
592 2 129.599 4.85631 2.67123 1064.66 
593 1 134.426 4.83359 -0.211838 1098.86 
594 1 134.932 7.32028 2.60232 1078.95 
595 1 137.914 4.83388 2.32759 1106.85 
596 1 137.385 7.87514 -0.333259 1092.49 
597 2 137.518 7.4799 3.02469 1099.06 
598 2 138.034 4.45982 -0.765198 1091.17 
599 2 134.748 8.09369 -0.307725 1097 
600 2 134.564 4.9196 2.87685 1113.64 
601 1 140.569 4.38343 -0.374999 1127.21 
602 1 140.303 7.74571 2.56454 1111.16 
603 1 143.226 5.23911 2.20119 1106.49 
604 1 143.651 8.14915 -0.77233 1100.88 
605 2 143.192 7.57478 3.17816 1139.19 
606 2 143.655 4.39391 -0.575033 1121.52 
607 2 140.514 7.99932 0.0447267 1108.33 
608 2 140.469 4.6342 2.13258 1091.69 
609 1 146.692 5.06088 -0.0068161 1104.17 
610 1 146.62 7.75105 2.47292 1084.82 
611 1 149.398 4.96131 2.61615 1107.89 
612 1 149.789 7.68269 -0.416157 1098.23 
613 2 148.943 8.06857 3.29504 1110.16 
614 2 149.82 4.8594 -0.315373 1126.75 
615 2 146.469 7.7273 -0.347206 1090.43 
616 2 146.146 5.36172 2.55207 1114.47 
617 1 152.646 4.8727 -0.646553 1092.05 
618 1 152.449 8.07273 3.01419 1093.38 
619 1 155.135 4.79971 2.43324 1113.88 
620 1 155.456 7.95637 -0.342789 1071.22 
621 2 155.248 7.7199 2.86954 1089.44 
622 2 155.203 4.80615 -0.11056 1084.04 
623 2 152.479 7.52839 -0.237471 1077.19 
624 2 152.288 5.20951 2.81815 1095.85 
625 1 158.083 4.42308 -0.139468 1066.34 
626 1 158.017 7.84831 2.03965 1069.4 
627 1 160.833 4.7578 2.58569 1075.9 
628 1 161.284 7.05687 -0.581694 1086.19 
629 2 160.996 7.43754 2.11365 1072.73 
630 2 161.051 4.44279 -1.04792 1045.21 
631 2 157.947 6.78986 -0.511298 1076.65 
632 2 158.339 4.38137 2.56994 1066.79 
633 1 163.582 4.59168 -0.111283 1075.11 
634 1 163.479 7.33862 2.50915 1071.26 
635 1 167.293 4.74986 2.30886 1070.52 
636 1 166.57 7.56697 -0.168358 1042.4 
637 2 166.341 7.31435 2.45391 1073.15 
638 2 166.532 4.31295 -0.507618 1087.06 
639 2 163.883 7.66806 -0.191079 1049.21 
640 2 163.695 4.68327 2.27379 1067.45 
641 1 169.519 4.78428 -0.081268 1051.79 
642 1 169.819 7.50221 2.45852 1056.02 
643 1 173.055 5.00603 2.37789 1073 
644 1 173.104 7.77975 -0.659313 1057.15 
645 2 172.83 7.39763 2.32097 1070.26 
646 2 172.074 4.58834 -0.543831 1059.02 
647 2 169.559 7.56883 -0.459545 1081.74 
648 2 169.737 4.73925 2.44741 1066.33 
649 1 175.562 4.85653 -0.717762 1058.61 
650 1 175.855 7.97229 2.09288 1079.35 
651 1 178.642 4.69228 2.58776 1064.25 
652 1 178.53 7.36113 -0.660384 1041.85 
653 2 179.295 7.59656 2.50996 1065.38 
654 2 178.714 4.2966 -0.591863 1042.42 
655 2 175.562 7.53503 -0.317955 1069.76 
656 2 175.931 4.97087 2.31877 1058.03 
657 1 181.193 4.28838 -1.0112 1038.04 
658 1 181.75 6.9799 2.54484 1047.68 
659 1 183.908 4.37249 1.85425 1023.96 
660 1 184.748 7.50915 -0.482028 1029.06 
661 2 184.278 7.24474 2.14697 1042.69 
662 2 184.766 4.65958 -0.820934 1026.86 
663 2 181.113 7.88668 -0.715994 1064.24 
664 2 181.226 4.4704 2.11235 1050.71 
665 1 187.842 4.34902 -0.507037 1044.09 
666 1 187.288 7.49165 2.85171 1026.26 
667 1 190.652 5.17076 2.84046 1014.3 
668 1 190.028 7.55208 -0.841141 1000.63 
669 2 189.968 7.88254 2.61615 1044.62 
670 2 190.449 4.81014 -0.723936 1016.88 
671 2 187.212 7.73894 -0.67522 1029.42 
672 2 187.029 4.61736 2.20597 1030.59 
673 1 192.816 4.50353 -0.551414 1013.79 
674 1 193.241 7.70422 2.18256 1020.22 
675 1 195.991 4.93314 2.25334 1025.41 
676 1 196.201 8.03985 -0.33067 1025.2 
677 2 196.338 7.73224 2.08198 1015.72 
678 2 196.137 4.5134 -0.495748 1014.22 
679 2 193.145 8.32091 -0.564764 1016.57 
680 2 193.178 4.95024 2.42771 1027.79 
681 1 198.701 4.69192 0.147421 1026.55 
682 1 198.778 8.12814 2.59784 998.906 
683 1 201.731 4.49962 2.52781 1001.19 
684 1 201.649 8.18307 -0.343171 1018.68 
685 2 201.323 7.81015 2.29209 1017.12 
686 2 201.899 4.8923 -0.557572 1001.85 
687 2 198.871 7.63319 -0.718393 1012.97 
688 2 198.608 5.05382 2.79032 1017.77 
689 1 204.959 4.75972 -0.0133739 986.648 
690 1 204.683 7.92998 2.06223 1019.49 
691 1 207.592 4.81158 2.74079 1021.09 
692 1 207.193 7.77237 -0.819768 993.798 
693 2 207.432 7.6489 2.45073 994.702 
694 2 207.252 4.96699 -0.267514 1001.71 
695 2 204.274 7.71119 -0.697306 996.659 
696 2 204.51 4.98314 3.11115 1017.36 
697 1 210.095 4.35176 -0.264176 1001.18 
698 1 210.519 7.44971 2.40745 992.42 
699 1 213.392 5.1786 2.33213 994.218 
700 1 213.231 7.18034 -0.957882 1002.26 
701 2 213.581 7.54516 2.7603 995.566 
702 2 212.947 4.86857 -0.242729 993.024 
703 2 210.562 7.57617 -0.538285 975.05 
704 2 210.134 4.49606 2.33989 1003.32 
705 1 216.504 4.38578 -0.27788 995.859 
706 1 215.98 7.31843 2.40555 1004.37 
707 1 218.846 4.78037 2.90672 978.055 
708 1 218.762 7.4463 -0.649987 983.687 
709 2 219.312 7.00368 2.066 1010.01 
710 2 218.686 4.45437 -1.04295 998.327 
711 2 215.825 7.71503 -0.48286 999.693 
712 2 216.252 4.80788 2.41432 1014.84 
713 1 221.83 4.41034 -0.654726 981.774 
714 1 221.805 7.47007 2.23054 1002.59 
715 1 225.226 4.28061 2.01714 981.47 
716 1 225.135 8.20526 -0.689408 973.93 
717 2 224.549 7.83844 2.06074 983.517 
718 2 225.222 4.9066 -0.36923 997.192 
719 2 222.577 7.23855 -1.44158 1019.91 
720 2 221.921 4.49134 2.58141 992.291 
721 1 227.525 5.22642 -0.334381 977.521 
722 1 226.548 7.62842 3.0316 963.4 
723 1 230.68 4.64642 2.26715 989.973 
724 1 230.568 7.65195 -0.200394 986.447 
725 2 231.313 7.36224 2.50233 992.473 
726 2 230.661 5.02829 -0.500565 970.002 
727 2 228.018 7.74688 -0.847044 964.708 
728 2 227.522 5.20066 2.81574 978.062 
729 1 233.238 4.77616 -0.352094 973.943 
730 1 233.999 7.45659 2.73818 997.999 