ITEM: TIMESTEP
11000000
ITEM: NUMBER OF ATOMS
8400
ITEM: BOX BOUNDS pp pp pp
-5.9099547646241319e+00 2.8359995476463484e+02
-2.1446273254920634e+00 4.0174627325491812e+01
-1.7757301867509554e+00 1.6325730186751606e+01
ITEM: ATOMS id type x y z f_TolTpA 
1 1 -4.06085 -1.25271 -0.648463 898.475 
2 1 -4.21791 1.53993 2.38097 897.065 
3 1 -1.15766 -1.42507 2.18235 915.883 
4 1 -1.09541 1.56666 -0.699397 909.132 
5 2 -1.11186 1.70575 2.56014 910.552 
6 2 -1.29338 -1.28946 -0.575449 911.843 
7 2 -4.05019 1.48725 -0.125958 915.399 
8 2 -4.13601 -1.5209 2.36521 910.142 
9 1 1.65528 -1.08633 -0.718862 917.942 
10 1 1.86159 1.62547 2.92623 934.012 
11 1 4.47749 -1.54377 2.73309 921.285 
12 1 4.21836 2.0641 -0.421804 917.916 
13 2 4.78395 2.11909 2.73675 928.522 
14 2 4.54892 -1.12618 -0.392548 936.238 
15 2 1.47437 1.65062 -1.20155 917.098 
16 2 1.60758 -1.27259 2.30674 896.728 
17 1 6.95757 -1.17247 -0.146704 940.841 
18 1 7.44945 2.2228 2.84879 909.024 
19 1 9.99498 -0.899111 2.35615 910.279 
20 1 9.78827 2.175 -0.296456 931.709 
21 2 9.8909 1.73446 2.476 908.198 
22 2 9.77029 -1.01591 -0.243067 906.118 
23 2 7.04539 1.94342 -1.303 908.029 
24 2 7.21627 -1.62396 2.55872 916.621 
25 1 13.326 -0.917439 -0.713256 932.311 
26 1 12.6724 2.07968 2.37641 922.023 
27 1 15.5218 -1.61914 2.48533 924.093 
28 1 16.2047 1.69135 -0.460648 935.871 
29 2 15.9042 2.01249 2.53246 938.883 
30 2 15.7928 -1.18401 -0.464939 951.612 
31 2 13.1071 2.00184 -0.451893 926.852 
32 2 12.7101 -1.13049 2.69112 951.493 
33 1 18.3695 -1.26486 -0.31397 925.97 
34 1 18.5964 1.79422 2.96996 929.085 
35 1 21.4236 -1.43007 2.39682 940.258 
36 1 21.5969 1.28264 -0.658136 938.933 
37 2 21.749 1.41188 2.64121 935.357 
38 2 21.5426 -1.39245 -0.165304 927.513 
39 2 18.9392 1.427 -0.390881 939.043 
40 2 18.3875 -1.12446 2.15717 935.692 
41 1 24.5222 -1.04701 -0.0360372 925.059 
42 1 24.225 1.81681 2.47918 941.53 
43 1 27.35 -0.815373 2.56286 949.107 
44 1 27.4325 1.52273 -0.516047 922.521 
45 2 27.0394 2.05153 2.49166 944.069 
46 2 27.7506 -1.28379 -0.679859 937.892 
47 2 24.6217 1.65055 -0.603178 953.142 
48 2 24.8725 -1.17928 2.61693 936.367 
49 1 30.6416 -1.05082 -1.17687 933.245 
50 1 30.2885 1.74786 2.42715 962.251 
51 1 33.3509 -1.28317 2.46102 957.878 
52 1 33.2455 2.10804 -0.07147 947.548 
53 2 33.2089 1.39492 2.8399 943.662 
54 2 33.4884 -0.735478 -0.340244 934.548 
55 2 29.8834 1.97866 -0.188952 943.262 
56 2 30.2077 -0.841107 2.53525 954.334 
57 1 36.2543 -0.980041 -0.77051 962.379 
58 1 35.8215 1.90785 2.12045 951.992 
59 1 38.4645 -0.820577 2.50098 970.78 
60 1 38.9659 1.7413 0.11059 951.667 
61 2 38.9 1.76203 2.73388 944.062 
62 2 39.1024 -1.34245 -0.269771 948.153 
63 2 36.3967 1.97007 -0.502865 957.843 
64 2 35.9393 -1.13911 2.527 942.91 
65 1 42.1498 -0.930517 -0.420879 951.584 
66 1 42.0672 1.88585 2.35074 961.971 
67 1 45.4185 -0.969701 1.87103 970.148 
68 1 45.0805 1.92955 -0.452818 958.599 
69 2 44.9899 1.68565 2.43549 995.294 
70 2 45.3691 -0.904411 -0.709966 972.303 
71 2 42.1445 1.6844 -0.312682 960.395 
72 2 41.7932 -0.747155 2.26332 952.756 
73 1 47.9103 -1.38264 0.0228398 952.537 
74 1 48.0439 2.14592 3.02856 982.216 
75 1 51.3165 -0.551707 2.61856 994.079 
76 1 50.5932 1.98306 -0.0099052 960.088 
77 2 51.0205 1.99799 2.46017 986.348 
78 2 50.8309 -1.17081 -0.539516 957.248 
79 2 48.0043 1.915 -0.370994 971.217 
80 2 48.2285 -0.830925 2.30859 978.591 
81 1 53.9162 -1.17345 -0.501883 939.105 
82 1 53.7871 1.82956 1.94598 988.309 
83 1 56.5212 -1.12855 2.32855 971.058 
84 1 56.5661 1.48309 -0.770447 984.743 
85 2 56.6371 1.75099 2.09133 974.699 
86 2 56.4359 -1.16126 -0.58986 974.906 
87 2 53.4988 1.5184 -0.513576 979.024 
88 2 53.7389 -0.764163 2.60243 970.787 
89 1 59.4928 -1.1436 -0.823295 979.859 
90 1 59.3559 2.14478 1.88333 975.241 
91 1 62.0952 -1.54251 2.09402 977.724 
92 1 62.308 2.06812 -0.88338 1002.63 
93 2 62.0918 1.98051 2.17919 1019.28 
94 2 62.4407 -1.13813 -0.654262 989.523 
95 2 59.2187 1.4628 -0.740998 981.509 
96 2 59.4898 -0.890973 2.14356 989.925 
97 1 65.0228 -0.994344 -0.713995 1003.31 
98 1 64.751 1.69124 2.74152 1003.7 
99 1 67.8709 -1.39197 2.43794 1007.1 
100 1 67.7475 1.80438 -0.415341 981.249 
101 2 67.3966 2.02483 2.62233 1009.94 
102 2 68.144 -1.09111 -0.319679 995.179 
103 2 65.1298 1.90051 -0.970693 994.57 
104 2 64.8629 -1.38126 2.43366 971.652 
105 1 70.4987 -1.80425 -1.08479 1003.43 
106 1 70.9351 2.22312 2.32644 1006.47 
107 1 73.1843 -1.39463 2.09155 1002.35 
108 1 73.7159 2.56745 -0.87515 994.716 
109 2 73.5347 1.6609 2.14648 1003.79 
110 2 73.6361 -1.63068 -0.9446 1001.81 
111 2 71.0366 2.25638 -0.899328 987.811 
112 2 70.6838 -1.5635 2.69512 1001.06 
113 1 76.3581 -1.05271 -0.907336 1003.56 
114 1 76.2651 2.1716 2.32165 1002.47 
115 1 79.3894 -0.709341 2.81907 994.816 
116 1 79.0964 1.64357 -0.807942 986.918 
117 2 79.8671 2.3266 2.22056 986.549 
118 2 79.0998 -1.07948 -1.21085 1000.48 
119 2 76.6209 2.16014 -0.290485 1009.65 
120 2 76.6929 -1.02081 2.79613 987.984 
121 1 83.0545 -1.10797 -0.937594 1011.59 
122 1 82.202 1.7169 1.70273 996.812 
123 1 85.4087 -0.848452 2.81185 1024.14 
124 1 85.1442 2.40117 -0.983109 1013.06 
125 2 85.0921 1.82803 2.75775 1029.97 
126 2 85.4822 -1.48085 -0.679093 1014.38 
127 2 82.6057 2.59087 -0.895163 1002.33 
128 2 82.438 -1.00256 2.46019 987.912 
129 1 88.5567 -1.19105 -0.174249 1012.3 
130 1 88.3631 1.99443 2.7781 1004.7 
131 1 91.7139 -1.13741 2.44013 1018.67 
132 1 91.3688 1.50669 -0.206246 1025.97 
133 2 92.0443 1.81235 2.57471 1019.2 
134 2 91.7605 -1.21527 -0.364695 1017.93 
135 2 88.7831 1.90037 0.275685 1015.88 
136 2 88.6662 -1.48307 2.34164 1001.69 
137 1 94.3087 -1.60878 -0.501647 1028.05 
138 1 94.8406 1.6363 1.92846 1040.47 
139 1 97.436 -1.32228 2.79113 1015.64 
140 1 97.3037 1.74863 -0.594521 1025.87 
141 2 97.2963 1.60136 2.48476 1012.31 
142 2 97.3571 -1.47766 -0.998207 1028.1 
143 2 94.2128 1.84665 -0.540786 1019.28 
144 2 94.8649 -1.13451 2.29882 1021.86 
145 1 99.9182 -0.479566 -0.413345 1015.14 
146 1 100.421 1.80939 2.60503 1028.71 
147 1 102.734 -1.35972 1.51793 1020.66 
148 1 102.877 2.70183 -0.693031 1005.54 
149 2 102.905 2.44725 2.34587 1041.06 
150 2 102.527 -1.23192 -1.24199 1023.31 
151 2 99.8917 2.15943 -0.431943 1030.97 
152 2 99.891 -1.28457 2.25163 1033.5 
153 1 105.185 -0.863966 -0.959882 1013.09 
154 1 105.637 1.83817 2.11944 1052.25 
155 1 108.354 -1.35426 2.0867 1014.53 
156 1 108.688 1.22742 -1.20256 1028.48 
157 2 108.3 2.41868 2.20721 1018.89 
158 2 108.53 -1.63505 -0.83214 1037.24 
159 2 105.575 2.09275 -0.889116 1033.84 
160 2 105.343 -0.585829 1.63112 1040.99 
161 1 111.378 -2.08904 -0.432211 1033.8 
162 1 111.035 2.44717 2.28664 1031.34 
163 1 114.282 -1.45663 2.34228 1053.68 
164 1 114.319 1.8672 -0.406583 1031.18 
165 2 114.182 2.06489 2.72918 1041.23 
166 2 113.814 -1.2336 -0.486155 1049.75 
167 2 111.123 1.6488 -1.13559 1049.81 
168 2 111.856 -1.58481 2.37802 1042.62 
169 1 117.783 -1.30087 -0.50416 1068.62 
170 1 116.68 1.5909 2.46848 1052.93 
171 1 120.337 -1.40258 2.28933 1045.56 
172 1 120.194 2.0809 -0.776305 1039.94 
173 2 120.442 1.64762 2.30742 1047.03 
174 2 120.352 -1.85557 -0.338482 1057.9 
175 2 117.224 1.67691 -0.719252 1050.04 
176 2 116.926 -1.93396 2.29 1043.45 
177 1 122.966 -1.29162 -0.575374 1062.7 
178 1 123.041 2.32809 2.90546 1059.93 
179 1 126.254 -1.38947 2.46678 1056.37 
180 1 125.269 1.39356 -0.524096 1057.23 
181 2 126.009 1.67594 2.76428 1076.08 
182 2 125.986 -1.09754 -0.599553 1065.12 
183 2 123.135 2.30654 0.0361834 1064.01 
184 2 122.976 -1.1235 2.63503 1074.38 
185 1 129.312 -1.03006 -0.590967 1045.17 
186 1 128.954 1.30176 2.30413 1072.26 
187 1 131.698 -0.946304 2.83171 1074.09 
188 1 132.698 1.72164 -0.808052 1081.5 
189 2 132.192 1.57944 3.13886 1073.27 
190 2 132.534 -0.973333 -0.805863 1059.55 
191 2 129.82 1.65518 -0.0679249 1060.48 
192 2 129.294 -1.17069 2.38117 1060.8 
193 1 134.817 -1.18504 -0.0872693 1054.03 
194 1 134.884 1.5214 2.94847 1078.33 
195 1 137.515 -1.59538 2.7766 1099.23 
196 1 137.457 1.86563 -0.946628 1107.01 
197 2 137.608 1.06921 3.31261 1083.72 
198 2 137.983 -1.40604 -1.29197 1078.51 
199 2 135.095 1.72005 -0.364419 1081.59 
200 2 134.746 -1.31896 3.26417 1088.57 
201 1 140.812 -1.50323 -0.488199 1076.72 
202 1 140.363 1.48566 2.30977 1086.61 
203 1 143.208 -1.65417 2.36194 1097.94 
204 1 143.952 1.18884 0.2348 1080.99 
205 2 144.25 1.90704 2.55197 1095.92 
206 2 143.739 -1.1935 -0.633882 1112.06 
207 2 140.385 2.26012 -0.513926 1090.21 
208 2 140.665 -1.71257 2.31602 1102 
209 1 146.515 -0.904505 -0.580104 1062.51 
210 1 147.017 2.15788 2.72785 1081.78 
211 1 149.647 -1.5501 2.21137 1107.19 
212 1 149.609 1.36594 -0.271522 1073.37 
213 2 149.344 1.0455 2.35498 1078.98 
214 2 149.43 -1.85097 -0.751975 1092.04 
215 2 146.8 2.01829 -0.88394 1084.22 
216 2 146.763 -1.55549 2.16773 1089.52 
217 1 151.971 -1.93374 -0.398814 1079.11 
218 1 152.216 1.26287 2.49753 1079.08 
219 1 154.972 -1.85735 2.21835 1079.49 
220 1 155.059 1.40297 -0.532182 1089.17 
221 2 154.635 0.660828 2.82068 1113.16 
222 2 155.248 -2.04481 -0.454394 1075.09 
223 2 151.961 1.06138 -0.637169 1054.27 
224 2 152.145 -1.89292 2.29124 1091.7 
225 1 158.012 -1.69898 -0.708546 1047.15 
226 1 157.541 1.1452 2.38025 1078.41 
227 1 160.623 -1.56872 2.26147 1064.02 
228 1 160.946 1.36736 -0.327003 1076.8 
229 2 160.564 1.34244 2.35514 1066.52 
230 2 160.646 -1.9756 -0.545072 1063.42 
231 2 157.868 1.19226 -0.359162 1086.18 
232 2 157.873 -1.77994 2.24637 1062.82 
233 1 163.891 -1.69119 -0.167749 1075.39 
234 1 163.578 1.03704 2.86495 1058.96 
235 1 166.814 40.1366 2.04264 1075.71 
236 1 166.43 1.5879 -0.291564 1042.08 
237 2 166.696 1.49671 2.47514 1055.74 
238 2 166.619 -2.01118 -0.664325 1069.35 
239 2 163.785 1.30089 0.0252309 1069.58 
240 2 163.782 -1.88576 2.31803 1043.11 
241 1 170.309 40.1391 -1.07517 1053.58 
242 1 169.498 1.18333 2.4823 1030.49 
243 1 172.256 -2.02608 2.31732 1036.66 
244 1 171.951 1.80884 0.0197562 1049.6 
245 2 172.248 1.93728 2.93232 1070.66 
246 2 172.523 39.9567 -0.326407 1070.88 
247 2 169.819 0.664416 -0.133432 1054.98 
248 2 169.315 -2.02577 2.82049 1081.14 
249 1 175.201 -1.69068 -0.577253 1062.72 
250 1 175.014 1.67617 2.56331 1048.66 
251 1 178.083 -1.69283 2.81805 1053.05 
252 1 177.887 0.968144 -0.6533 1058.59 
253 2 177.502 1.65865 2.7363 1022.67 
254 2 178.621 -1.17236 0.254734 1073.9 
255 2 174.902 1.36923 -0.240487 1037.4 
256 2 175.42 -1.64387 2.90753 1048.94 
257 1 181.767 -1.11499 -0.480458 1019.76 
258 1 180.284 1.00319 2.4614 1025.36 
259 1 184.599 -1.28671 2.58971 1049.65 
260 1 184.224 1.58686 -0.983967 1037.01 
261 2 183.494 1.11345 2.04138 1015.14 
262 2 184.102 -1.1994 -1.42502 1041.96 
263 2 181.015 1.58799 -1.07497 1039.03 
264 2 180.806 -1.32539 2.93749 1057.43 
265 1 186.639 -1.02369 -0.878148 1035.05 
266 1 187.105 0.849659 2.02345 1043.52 
267 1 189.76 -2.12847 2.34344 1023.01 
268 1 189.859 1.26884 -1.03283 1042.96 
269 2 189.789 1.02003 2.51147 1049.78 
270 2 189.608 -1.50665 -1.13959 1026.15 
271 2 186.594 1.62004 -1.05713 1039.38 
272 2 187.294 -1.83146 1.46407 1029.5 
273 1 192.694 -1.80725 -0.957852 1034.3 
274 1 192.568 0.675559 2.60036 1031.53 
275 1 195.438 -1.2432 2.17411 1021.94 
276 1 196.131 1.74925 -0.364598 1012.69 
277 2 195.706 1.08507 2.37578 1027.34 
278 2 195.957 -1.73738 -0.91903 1041.31 
279 2 193.086 0.875709 -0.00174707 1030.86 
280 2 192.326 40.0117 2.44456 1044.16 
281 1 198.811 -1.98343 -0.490827 1014.28 
282 1 198.332 1.45264 2.63222 1033.47 
283 1 201.734 -1.63183 2.0514 1040.44 
284 1 201.814 1.10509 -0.541862 1021.87 
285 2 201.122 1.32033 2.16277 1015.07 
286 2 201.873 -2.0166 -0.817235 1010.46 
287 2 198.772 1.72312 -0.636712 1029.84 
288 2 198.791 -1.85306 2.60762 1019.33 
289 1 204.911 -1.70856 -0.618492 1014.58 
290 1 204.375 1.30383 2.39475 1018.07 
291 1 207.446 -1.81144 2.3454 994.537 
292 1 207.022 1.71289 -0.803018 1015.19 
293 2 206.957 1.76178 2.46513 993.648 
294 2 207.154 -1.1851 -0.419868 1016.4 
295 2 204.705 0.733412 -0.768616 1011.07 
296 2 204.401 -1.53989 2.7357 1013.58 
297 1 209.776 -1.00456 -0.475282 1008.16 
298 1 209.992 1.75366 2.76175 993.101 
299 1 212.748 -1.44896 2.04567 1008.9 
300 1 213.226 1.48809 -0.881477 1010.93 
301 2 212.768 1.27874 2.64527 998.34 
302 2 213.387 -0.901908 -0.581549 1012.29 
303 2 210.484 1.44824 -0.517851 1008.73 
304 2 210.049 -1.2539 2.34707 1025.33 
305 1 215.79 -1.14153 -0.441411 996.832 
306 1 215.745 1.1365 2.44989 1003.1 
307 1 218.942 -1.87148 2.4855 996.933 
308 1 218.722 1.32731 -0.291232 980.013 
309 2 218.372 1.13577 2.61876 997.078 
310 2 218.97 -1.31144 -0.0496976 996.714 
311 2 215.535 1.66811 -0.109361 991.707 
312 2 215.939 -1.84934 1.99902 1013.35 
313 1 221.783 40.1189 -1.1286 1013.41 
314 1 221.508 1.25213 2.34306 986.611 
315 1 224.677 -2.04621 2.3057 970.642 
316 1 224.757 0.723986 -0.590575 1005.37 
317 2 225.171 1.18951 2.30917 986.958 
318 2 224.408 -1.93995 -0.33085 967.633 
319 2 221.633 1.61038 -0.932071 991.66 
320 2 222.126 -1.74327 2.57734 990.929 
321 1 227.66 -1.83887 -0.684947 989.972 
322 1 227.742 1.26272 2.6799 969.604 
323 1 230.845 -2.00611 2.91768 997.771 
324 1 230.301 0.675349 -0.391704 956.034 
325 2 230.385 1.00667 3.38138 980.981 
326 2 230.684 40.1143 -0.0541073 976.619 
327 2 227.38 0.848413 -1.24023 989.664 
328 2 228.15 -1.74512 2.65004 972.172 
329 1 233.366 39.864 0.166929 975.1 
330 1 233.098 1.0371 2.67362 980.788 
331 1 236.467 -1.86168 3.08327 1001.57 
332 1 236.624 0.612337 0.362211 973.234 
333 2 236.241 0.856524 2.70068 985.462 
334 2 236.289 40.1669 -0.00321067 970.821 
335 2 233.438 0.495401 -0.0876593 967.589 
336 2 233.638 39.9583 3.11099 959.14 
337 1 239.03 40.0937 -0.149519 980.722 
338 1 239.406 0.882672 2.93672 963.296 
339 1 242.248 -1.65276 3.00879 957.125 
340 1 242.352 1.32982 0.0460455 978.423 
341 2 242.594 1.09061 2.69096 967.549 
342 2 241.666 39.8776 0.648555 963.994 
343 2 239.405 1.03542 -0.000213965 967.343 
344 2 238.98 -1.78844 3.25936 978.588 
345 1 244.78 -1.54997 -0.420065 974.668 
346 1 245.293 1.05952 3.07682 981.208 
347 1 248.224 -1.55514 3.25649 962.801 
348 1 247.889 0.785699 -0.174299 960.506 
349 2 248.185 0.891918 3.21834 956.112 
350 2 247.738 -1.67008 -0.0492586 964.902 
351 2 244.734 1.14955 -0.420527 975.017 
352 2 244.993 -1.56526 2.6483 987.017 
353 1 251.056 40.1351 0.0721815 974.096 
354 1 250.771 1.49993 2.30726 953.285 
355 1 253.589 -1.98724 3.58552 949.587 
356 1 253.369 1.26731 -0.429517 930.865 
357 2 253.739 1.26855 2.61888 943.051 
358 2 254.134 -1.26215 -0.471578 948.613 
359 2 250.852 1.13043 -0.299136 947.024 
360 2 250.956 -1.73594 2.71393 965.953 
361 1 256.746 -2.07662 0.176385 945.958 
362 1 256.606 0.738814 2.4364 948.026 
363 1 259.877 -1.44181 2.22312 953.287 
364 1 259.825 1.40666 -0.0923392 954.3 
365 2 259.181 1.06949 2.49777 934.715 
366 2 259.797 -1.26968 -0.204734 950.608 
367 2 256.687 0.93858 -0.56776 943.82 
368 2 256.215 -1.97523 2.63041 962.339 
369 1 262.687 -1.4198 -0.551672 942.326 
370 1 262.699 1.54825 2.27772 943.474 
371 1 265.533 -1.72696 2.8925 920.052 
372 1 265.089 1.27489 -0.382445 943.203 
373 2 265.491 1.50734 2.80757 944.992 
374 2 265.458 -1.76414 -0.732839 943.197 
375 2 262.393 1.28206 -0.468155 921.634 
376 2 262.806 -1.32551 2.56246 944.253 
377 1 268.068 -2.00233 -0.447817 957.843 
378 1 268.052 1.63129 2.6766 938.476 
379 1 270.645 -1.66308 2.46329 957.904 
380 1 270.915 1.81162 -0.468597 915.644 
381 2 271.192 1.41646 2.42675 911.144 
382 2 270.801 -1.86912 -0.502018 956.172 
383 2 268.185 1.2893 -0.188005 943.6 
384 2 268.146 -1.86666 2.63783 939.181 
385 1 273.398 -1.21444 -0.493787 924.555 
386 1 274.082 1.59024 2.42922 911.516 
387 1 277.14 -1.20362 2.28946 925.138 
388 1 276.48 2.06129 -0.639213 932.951 
389 2 277.203 1.45251 2.4698 933.031 
390 2 276.786 -1.03147 -0.466293 923.421 
391 2 273.709 2.15254 -0.392597 917.463 
392 2 273.841 -1.01274 2.16627 923.693 
393 1 279.201 -0.723958 -1.39322 914.841 
394 1 279.811 1.38834 1.86177 943.477 
395 1 282.404 -1.4263 2.06831 933.475 
396 1 282.583 1.56942 -0.337295 910.807 
397 2 282.475 1.62749 2.32147 909.272 
398 2 282.179 -1.0818 -0.579661 906.763 
399 2 279.735 1.79075 -0.671143 919.383 
400 2 279.657 -1.48132 2.81293 909.476 
401 1 -4.10705 4.03739 -0.0374112 895.221 
402 1 -4.19843 7.48804 2.67163 899.368 
403 1 -1.23187 4.36444 2.70828 916.119 
404 1 -1.32756 7.20805 -0.527673 934.289 
405 2 -0.966776 7.0354 2.55086 914.13 
406 2 -1.30313 4.34094 -0.737933 905.381 
407 2 -4.15067 7.28335 -0.469755 900.76 
408 2 -4.28933 4.60499 2.52434 912.364 
409 1 1.27528 4.26619 -0.441366 899.954 
410 1 1.61523 7.91055 2.56582 905.699 
411 1 4.47097 4.62828 2.56615 887.651 
412 1 3.98345 7.78636 -0.476937 911.291 
413 2 4.54421 8.05716 2.31535 918.62 
414 2 4.33573 5.14988 -0.199512 914.954 
415 2 1.45343 7.07659 -0.598486 890.218 
416 2 1.42553 4.34553 2.90585 912.667 
417 1 6.8453 5.11841 -0.216248 917.701 
418 1 6.92047 8.46838 2.52313 897.71 
419 1 9.82271 5.47237 2.71208 913.405 
420 1 10.0866 7.61669 -0.320722 904.686 
421 2 9.69116 8.14865 2.3718 922.267 
422 2 10.0545 4.63619 -0.080504 910.805 
423 2 6.63424 7.79208 -0.48143 892.932 
424 2 7.4524 4.76704 2.52967 925.532 
425 1 12.949 4.43392 -0.268334 932.65 
426 1 13.5049 7.51993 2.49618 915.44 
427 1 15.5797 4.98281 2.01938 919.614 
428 1 15.9975 7.66235 -0.898796 930.847 
429 2 15.8862 7.88862 1.9319 921.144 
430 2 15.7649 5.08508 -0.4579 941.023 
431 2 12.8871 7.7124 -0.38671 935.157 
432 2 12.4389 4.70043 2.63769 920.82 
433 1 19.0661 5.21387 -0.304624 904.355 
434 1 18.4769 7.92561 2.03883 922.83 
435 1 21.6158 4.63488 2.53373 932.805 
436 1 21.6683 8.533 -1.1674 931.966 
437 2 21.7164 7.73882 2.90309 939.17 
438 2 21.718 5.38317 -0.751253 933.449 
439 2 18.5743 7.78344 -0.394878 918.925 
440 2 18.7575 4.84342 2.57944 929.958 
441 1 24.516 5.26088 -0.568531 935.123 
442 1 24.3469 7.7273 2.73603 925.294 
443 1 27.1467 4.55389 2.93652 948.974 
444 1 27.4337 8.24469 -0.574189 949.833 
445 2 27.1002 8.05898 2.41763 951.94 
446 2 27.0292 4.82834 -0.886356 922.187 
447 2 24.129 8.50011 -0.366718 924.583 
448 2 24.5877 5.35379 2.69442 950.431 
449 1 29.9968 4.75752 -0.782349 944.337 
450 1 30.3178 7.63427 2.36241 960.984 
451 1 33.0325 5.03269 1.93246 959.265 
452 1 33.0596 7.29138 -0.706652 967.462 
453 2 33.2512 8.17272 2.18093 939.989 
454 2 32.8228 4.56875 -1.0728 938.907 
455 2 30.3067 7.60609 -0.382278 960.352 
456 2 30.53 4.67289 2.77439 938.825 
457 1 36.3577 4.83669 -0.738611 971.878 
458 1 36.1775 7.35671 2.59567 944.113 
459 1 39.1639 4.78963 2.54814 963.046 
460 1 39.0916 7.83151 -0.548026 950.926 
461 2 38.9037 8.51115 2.44359 953.107 
462 2 39.3051 4.9298 -0.494051 983.295 
463 2 35.8894 7.27974 0.165487 952.599 
464 2 35.3145 4.70396 2.26148 951.698 
465 1 42.1285 4.96144 -0.527518 957.003 
466 1 42.082 8.13655 2.48299 939.986 
467 1 45.0641 5.02798 2.23839 971.865 
468 1 44.6938 7.66797 -0.646615 965.454 
469 2 45.1135 7.96482 3.45767 953.304 
470 2 44.638 4.6513 -0.386541 990.032 
471 2 41.8354 8.0094 -0.468373 945.153 
472 2 41.8156 5.56357 2.44652 953.963 
473 1 47.9036 4.86858 -0.481939 951.689 
474 1 47.5467 7.91622 2.94167 946.534 
475 1 50.8967 4.60486 3.13307 973.596 
476 1 50.1071 7.76948 -0.443614 974.526 
477 2 50.2779 8.17275 2.6964 981.777 
478 2 50.4519 5.33584 -0.212885 1005.16 
479 2 47.2061 7.70373 -0.429776 988.245 
480 2 48.0972 4.5869 2.79663 966.782 
481 1 53.208 5.36933 -0.249932 970.486 
482 1 53.2682 8.09997 2.35196 955.819 
483 1 56.2739 4.61789 2.57491 967.597 
484 1 55.6227 8.30461 -1.12291 990.272 
485 2 55.9128 8.23267 2.53967 1011.03 
486 2 56.0149 4.58546 -1.00378 974.499 
487 2 53.1103 8.09184 -0.507987 970.837 
488 2 53.4639 4.93709 2.24888 962.653 
489 1 59.2982 5.41612 -0.73135 1001.08 
490 1 58.6693 7.91161 2.3223 985.498 
491 1 62.0561 4.94405 2.14159 987.3 
492 1 61.893 8.28101 -0.91509 978.118 
493 2 61.8164 7.67185 1.94872 1009.26 
494 2 62.0057 5.28868 -0.460954 995.634 
495 2 58.8075 8.15277 -0.417068 958.046 
496 2 59.1511 4.95238 1.95393 970.653 
497 1 65.4061 5.55699 -0.0673536 999.047 
498 1 65.2319 7.76827 2.45872 990.845 
499 1 68.0055 4.73868 2.86592 981.252 
500 1 68.2887 8.59864 -0.124253 988.357 
501 2 67.7208 8.31885 2.40896 992.654 
502 2 67.6748 4.88702 -0.554523 983.019 
503 2 65.6472 7.92468 -0.298762 1004.73 
504 2 64.963 5.11429 2.88225 991.752 
505 1 70.3312 4.96046 -1.03499 987.312 
506 1 70.9014 8.39578 2.65975 1007.32 
507 1 73.322 5.014 2.81505 1005.73 
508 1 73.9262 7.87618 -1.21984 1008.77 
509 2 73.3826 7.94133 2.4389 997.076 
510 2 73.3857 5.07408 -0.993 995.407 
511 2 70.6138 7.93116 -0.277504 968.11 
512 2 70.6927 5.20278 2.34645 982.652 
513 1 76.8402 4.76067 -0.663727 1002.06 
514 1 76.3682 7.72485 2.64189 1003.66 
515 1 80.0657 4.82767 1.9121 1007.76 
516 1 79.2795 8.24674 -0.0955133 978.511 
517 2 79.9792 7.45507 2.48519 1008.94 
518 2 79.2733 5.05397 -0.532397 1007.15 
519 2 76.6043 8.24087 -0.852158 999.984 
520 2 76.1613 5.07525 2.12009 988.618 
521 1 82.14 5.08699 -0.729522 1006.81 
522 1 82.5875 8.35786 2.66258 996.042 
523 1 85.3698 4.99746 2.33225 987.792 
524 1 85.6646 7.64834 -0.650351 1000.51 
525 2 85.4501 8.0519 2.58366 994.323 
526 2 85.9911 4.77824 -0.713245 1006.49 
527 2 82.473 7.67789 -0.658117 1015 
528 2 82.8376 4.98458 2.40845 1009.64 
529 1 88.9216 4.33537 -0.334503 1017.51 
530 1 88.0691 7.79118 2.23652 1042.16 
531 1 90.9808 4.87275 2.75933 1013.3 
532 1 91.4795 7.71087 -0.255309 1038.43 
533 2 91.2328 7.45492 2.67118 1025.28 
534 2 91.0946 4.66557 -0.426019 1006.41 
535 2 88.3326 7.89462 -0.621115 1015.6 
536 2 87.9993 4.80578 2.50854 1001.86 
537 1 93.832 4.4237 -0.653452 1016.67 
538 1 93.8095 7.87114 2.92874 1021.48 
539 1 97.2264 5.04971 2.26476 1036.46 
540 1 96.4976 8.22047 -0.653568 1033.49 
541 2 97.0957 8.33727 2.83887 1051.43 
542 2 97.2054 4.35988 -0.714849 1013.67 
543 2 93.8741 7.9284 -0.668146 1010.88 
544 2 94.3598 5.03793 2.20587 1036.43 
545 1 99.8641 5.83495 -0.820401 1032.03 
546 1 99.3607 7.7752 2.99603 1037.4 
547 1 103.024 5.21199 2.36019 1033.65 
548 1 102.687 7.98273 -0.522779 1030.34 
549 2 102.879 8.24996 2.65478 1030.55 
550 2 102.762 5.13079 -0.924293 1041.21 
551 2 99.3672 8.4378 -0.400492 1064.25 
552 2 99.9359 5.25843 2.53881 1046.5 
553 1 106.06 5.25184 -0.663951 1031.09 
554 1 105.605 7.73587 2.43826 1046.86 
555 1 108.412 5.31412 2.09088 1038.5 
556 1 108.421 8.01795 -0.907784 1055.11 
557 2 108.522 8.11475 2.28268 1053.8 
558 2 108.685 4.91148 -0.686011 1065.99 
559 2 105.94 8.12836 -0.539214 1064.5 
560 2 105.584 5.176 1.88594 1049.94 
561 1 111.28 4.17529 -1.05586 1044.23 
562 1 111.689 8.18478 2.33533 1061.01 
563 1 114.146 5.0731 2.13096 1053.7 
564 1 114.214 7.89005 -0.567432 1063.15 
565 2 114.419 8.13771 2.1479 1087.24 
566 2 114.553 4.23498 -0.646823 1072.75 
567 2 111.52 7.80895 -0.0335592 1032.69 
568 2 111.228 5.19771 2.17361 1019.26 
569 1 117.487 4.7403 -0.431792 1057.68 
570 1 117.003 8.04109 2.42555 1084.63 
571 1 120.554 4.22759 2.51691 1044.92 
572 1 119.997 7.45899 -0.463252 1047.05 
573 2 120.143 7.89981 2.3139 1045.29 
574 2 120.052 4.72464 -0.200652 1045.18 
575 2 116.991 7.68325 -0.799941 1053.48 
576 2 116.964 4.81657 2.35125 1055.51 
577 1 123.539 5.09407 -0.715172 1061.6 
578 1 123.158 7.78833 1.97455 1071.85 
579 1 125.739 3.80968 1.63291 1066.72 
580 1 126.474 7.94743 -0.269224 1073.05 
581 2 125.776 7.71447 2.89957 1071.15 
582 2 126.389 4.48103 -0.701657 1088.18 
583 2 123.077 7.65135 -0.41797 1059.9 
584 2 122.994 4.97036 2.08737 1058.85 
585 1 129.068 4.63345 0.0747427 1074.48 
586 1 129 7.60544 2.46858 1118.03 
587 1 131.807 4.35544 2.63561 1067.81 
588 1 131.981 7.64371 -0.32373 1101.91 
589 2 131.817 7.78545 2.34973 1092.44 
590 2 132.46 4.41797 0.244434 1080.96 
591 2 128.907 7.09242 -0.234863 1058.6 
592 2 129.227 4.89148 2.59499 1081.84 
593 1 135.084 5.01927 -0.261875 1086.02 
594 1 134.339 7.32076 2.47372 1099.88 
595 1 138.061 5.05235 3.15584 1088.15 
596 1 137.334 7.92194 0.216487 1099.64 
597 2 137.879 7.76283 2.62757 1089.15 
598 2 137.678 5.03645 -0.71795 1082.4 
599 2 134.441 7.42286 -0.0127551 1083.39 
600 2 135.995 4.40603 2.41471 1081.85 
601 1 140.267 4.87404 -0.572127 1096.69 
602 1 140.738 8.396 2.38048 1087.18 
603 1 143.558 4.65379 2.0935 1104.51 
604 1 143.344 7.66549 -0.558063 1089.86 
605 2 143.277 8.09388 2.14039 1104.91 
606 2 143.336 5.23726 -0.760143 1091.73 
607 2 141.026 7.83407 -0.320614 1094.97 
608 2 140.602 4.33696 2.97818 1115.44 
609 1 146.811 1.67862 14.2335 1083.49 
610 1 146.581 4.9213 -0.722969 1105.09 
611 1 148.521 5.61335 2.55266 1093.66 
612 1 149.478 7.68642 -0.362077 1097.2 
613 2 148.911 8.19585 2.39636 1084.13 
614 2 149.643 4.89836 -0.02393 1090.79 
615 2 146.374 8.28005 -0.217427 1104.34 
616 2 146.298 4.95661 2.06512 1118.42 
617 1 152.145 4.70749 -0.110908 1084.12 
618 1 152.728 8.26851 2.60431 1087.36 
619 1 154.655 4.17186 2.78263 1076.17 
620 1 155.059 7.46347 -0.206512 1059.36 
621 2 155.034 6.86128 2.53174 1052.23 
622 2 154.875 4.00288 -0.475031 1082.3 
623 2 152.542 7.63624 -0.290186 1090.26 
624 2 152.2 3.94335 2.23359 1088.17 
625 1 157.744 4.18238 -0.0380812 1066.61 
626 1 157.368 7.25954 1.99278 1084.53 
627 1 161.319 4.32246 2.52365 1060.59 
628 1 160.794 6.86112 -0.538678 1063.64 
629 2 161.122 7.00346 2.20471 1088.55 
630 2 160.89 4.00936 -0.146808 1055.03 
631 2 158.071 6.99463 -0.783015 1062.61 
632 2 157.686 4.11349 2.40372 1079.75 
633 1 163.564 4.74293 0.0612715 1092.84 
634 1 163.93 7.57087 2.40009 1047.54 
635 1 166.988 4.49347 2.05818 1067.13 
636 1 166.89 7.52723 -0.549083 1050.6 
637 2 166.59 7.1192 2.08777 1066.55 
638 2 167.002 4.09498 -0.647451 1083.13 
639 2 163.441 7.27825 -0.423181 1058.64 
640 2 163.884 4.01883 2.44024 1045.75 
641 1 169.56 3.74453 -0.449212 1054.49 
642 1 170.009 7.13499 2.67494 1061.21 
643 1 172.375 4.40656 2.38113 1048.96 
644 1 172.744 7.18629 -0.437914 1073.62 
645 2 172.63 7.18109 2.65186 1066.98 
646 2 172.429 4.11539 -0.657168 1052.94 
647 2 169.785 6.47735 -0.353927 1081.31 
648 2 169.687 4.2888 2.45268 1054.17 
649 1 175.418 4.61156 -0.222162 1035.76 
650 1 175.262 7.41162 2.82993 1084.48 
651 1 178.366 5.06468 2.19112 1056.67 
652 1 178.803 7.19998 -0.707776 1047.95 
653 2 178.214 7.81004 2.2036 1045.92 
654 2 178.444 4.70342 -0.464394 1027.07 
655 2 175.406 7.48271 0.152294 1068.14 
656 2 175.282 4.61505 2.22318 1057.02 
657 1 180.802 4.11655 -0.53762 1031.1 
658 1 181.481 7.58962 1.95893 1047.49 
659 1 184.125 3.77699 2.13592 1061.65 
660 1 183.686 7.18979 -0.599509 1029.06 
661 2 184.433 7.48622 1.93391 1029.27 
662 2 183.972 3.94806 -0.532098 1019.7 
663 2 181.038 7.96373 -0.752133 1046.21 
664 2 180.907 4.49894 2.17946 1054.11 
665 1 187.276 4.25926 -0.923907 1042.24 
666 1 187.311 6.99655 2.02501 1053.39 
667 1 189.979 4.6107 1.78956 1035.35 
668 1 189.583 7.88966 -0.987775 1029.81 
669 2 189.771 7.54464 2.02951 1033.84 
670 2 190.107 3.90769 -0.620877 1004.58 
671 2 187.125 7.05242 -1.17236 1049.13 
672 2 187.16 3.98437 2.33152 1031.14 
673 1 192.575 4.27652 -0.574105 1032.39 
674 1 192.936 7.98937 2.3176 1052.57 
675 1 195.545 3.67243 2.82149 1000.9 
676 1 195.652 7.49347 -0.159626 1027.85 
677 2 195.366 7.60044 2.68831 1017.54 
678 2 195.6 4.52674 -0.375354 1032.37 
679 2 192.356 7.01355 -0.757035 1037.46 
680 2 192.476 4.55809 2.60251 1041.33 
681 1 198.372 4.1752 -0.694597 1036.96 
682 1 198.536 7.28926 2.25266 1020.81 
683 1 201.549 4.05822 2.28581 1019.35 
684 1 201.008 8.0434 -0.694856 1023.93 
685 2 201.043 7.59331 2.60419 1035.8 
686 2 201.181 4.42309 -0.519372 1038.1 
687 2 198.193 7.22395 -0.449126 1038.8 
688 2 198.517 4.4865 2.66651 1022.76 
689 1 204.141 5.14354 -0.601978 1033.65 
690 1 204.01 7.29434 2.30484 994.435 
691 1 207.209 4.42099 2.49381 982.938 
692 1 207.55 7.54805 -0.459209 1023.7 
693 2 207.66 7.33249 2.24922 997.768 
694 2 207.025 4.40263 -0.500904 1007.43 
695 2 204.927 7.59922 -0.911553 1013.04 
696 2 204.141 4.23784 1.73029 1031.15 
697 1 209.947 4.35474 -0.167248 1034.74 
698 1 210.27 7.46433 2.40662 1010.87 
699 1 213.816 4.60617 2.19047 1009.69 
700 1 213.51 7.27126 -0.298685 1017.61 
701 2 212.974 7.5108 2.57199 1019.47 
702 2 213.432 4.40744 -0.249853 1024.09 
703 2 210.353 7.28622 -0.667636 1014.39 
704 2 209.887 4.40472 2.83868 997.08 
705 1 216.224 4.06516 -0.432847 1022.03 
706 1 216.565 7.74214 2.41562 989.82 
707 1 218.722 4.9539 2.14066 995.385 
708 1 218.886 7.59932 -1.4227 976.198 
709 2 218.998 7.95491 2.75593 997.939 
710 2 218.686 3.97999 -0.0966096 1008.46 
711 2 216.782 7.33955 -0.0786767 999.33 
712 2 216.176 5.02479 2.90865 988.003 
713 1 221.934 4.27031 -0.872713 1010.85 
714 1 221.723 7.64212 2.48323 996.721 
715 1 224.908 3.91744 2.31819 984.638 
716 1 224.316 7.06825 -0.885675 1003.38 
717 2 224.726 7.37392 2.53093 988.475 
718 2 224.793 4.22839 -0.25817 984.943 
719 2 221.561 7.14237 -0.773897 1015.52 
720 2 222.447 4.3513 2.39544 989.566 
721 1 227.631 3.5344 -1.12929 964.732 
722 1 227.428 6.779 1.87814 965.661 
723 1 230.352 4.38479 2.60422 968.556 
724 1 230.864 7.89363 -0.385388 977.934 
725 2 230.557 7.22579 2.09209 969.686 
726 2 230.481 3.25255 -0.912427 987.831 
727 2 227.686 7.13669 -0.852416 969.212 
728 2 227.618 3.87815 2.33803 980.66 
729 1 233.278 3.56271 -0.5183 950.55 
730 1 233.325 6.98237 2.32815 961.299 