ITEM: TIMESTEP
10500000
ITEM: NUMBER OF ATOMS
8400
ITEM: BOX BOUNDS pp pp pp
-5.9099547646241319e+00 2.8359995476463484e+02
-2.1446273254920634e+00 4.0174627325491812e+01
-1.7757301867509554e+00 1.6325730186751606e+01
ITEM: ATOMS id type x y z f_TolTpA 
1 1 -4.14894 -1.54708 -0.253626 925.304 
2 1 -3.9532 1.78354 2.94113 909.065 
3 1 -1.57161 -1.15016 3.15325 912.566 
4 1 -1.61049 2.20365 -0.465877 892.626 
5 2 -1.33544 2.19198 2.89454 880.817 
6 2 -1.45057 -1.28306 -0.0733847 911.847 
7 2 -4.34074 1.7258 -0.0299243 916.503 
8 2 -4.26118 -0.973454 3.04678 905.639 
9 1 1.62951 -1.42003 0.188019 913.676 
10 1 1.20096 2.51597 2.65539 910.589 
11 1 4.64124 -1.03796 3.21438 917.01 
12 1 4.44697 1.8263 0.160895 939.034 
13 2 4.16411 1.72485 2.91077 906.339 
14 2 4.57033 -1.70694 0.406461 915.777 
15 2 1.58066 2.34377 -0.187082 911.764 
16 2 1.20885 -1.14606 2.89332 905.213 
17 1 7.27909 -1.67125 0.00854613 899.149 
18 1 7.36816 1.58993 2.54397 924.811 
19 1 10.187 -1.14082 3.51286 924.859 
20 1 10.1356 1.56261 0.0711942 901.835 
21 2 9.94157 1.47472 3.39092 902.573 
22 2 9.70729 -1.03436 0.290348 920.575 
23 2 6.89 2.22337 -0.143054 906.638 
24 2 7.01488 -1.67436 3.24459 898.362 
25 1 12.8117 -1.30185 -0.234973 940.092 
26 1 12.7006 1.83747 2.99348 933.123 
27 1 16.106 -1.32872 3.33046 943.755 
28 1 16.2061 1.674 -0.13107 914.718 
29 2 15.5269 1.64869 3.10523 919.741 
30 2 16.3081 -1.51727 0.439666 935.657 
31 2 12.6681 1.43903 -0.449627 915.521 
32 2 12.8045 -1.01727 3.172 920.165 
33 1 18.775 -1.40234 -0.154523 933.78 
34 1 19.28 1.36433 2.94394 933.804 
35 1 22.0973 -1.40235 2.46786 923.602 
36 1 21.7664 1.33798 -0.26801 950.502 
37 2 21.9883 1.33358 2.52498 951.892 
38 2 21.6073 -1.6432 -0.723377 947.467 
39 2 19.1243 1.15817 -0.418022 942.01 
40 2 19.3349 -1.27738 2.71598 937.891 
41 1 25.2181 40.1636 -0.0915942 933.356 
42 1 24.7661 1.15021 2.62341 946.847 
43 1 27.5523 -1.74904 2.72213 940.338 
44 1 27.4355 0.744852 -0.187865 927.793 
45 2 27.9741 0.989261 3.05538 952.255 
46 2 27.8518 39.7641 -0.392306 953.574 
47 2 24.5733 1.04943 -0.287953 944.069 
48 2 24.8694 -1.73343 2.73899 937.475 
49 1 30.6893 -1.86535 -0.782631 953.77 
50 1 30.6008 0.494651 2.95496 943.196 
51 1 33.2725 -1.68462 1.85751 945.431 
52 1 33.4461 0.672934 -0.715023 920.48 
53 2 33.2879 1.02336 2.31426 940.827 
54 2 33.7466 -1.80132 -0.8993 966.036 
55 2 30.1941 0.851016 -0.133529 943.337 
56 2 30.644 40.0751 2.86564 960.024 
57 1 36.438 -2.10296 -0.522905 959.555 
58 1 36.0401 0.829813 2.50664 944.526 
59 1 39.1657 -2.13056 2.50927 949.786 
60 1 38.8755 0.583137 -0.974768 953.47 
61 2 38.9562 0.689407 2.44237 963.948 
62 2 39.1141 -1.87789 -0.300971 953.264 
63 2 36.2854 0.927147 -0.686409 955.846 
64 2 36.107 -1.94016 2.19497 949.405 
65 1 41.8528 40.0632 -0.140286 964.593 
66 1 41.9775 1.05144 2.25694 967.093 
67 1 45.0411 -2.01074 2.32827 944.984 
68 1 44.3867 1.09958 -0.578638 963.717 
69 2 44.6387 0.856548 2.5699 959.843 
70 2 45.0297 -2.04393 -0.127174 957.471 
71 2 41.9372 0.522073 -0.900277 968.151 
72 2 41.9459 -2.00632 2.53267 965.506 
73 1 47.68 40.1124 -0.313846 970.499 
74 1 47.4693 1.62102 1.89954 968.391 
75 1 50.0093 -1.92413 2.29204 971.925 
76 1 50.5681 0.944009 -0.454576 987.453 
77 2 50.5741 0.71678 2.37762 965.358 
78 2 50.3669 40.0384 -0.0987277 968.906 
79 2 47.6502 1.29837 -0.708681 947.879 
80 2 47.6419 40.1324 2.66223 969.029 
81 1 53.5436 -1.71255 -0.595633 966.356 
82 1 53.1057 0.957577 2.43024 937.661 
83 1 56.3136 -2.04856 2.79342 984.143 
84 1 56.3904 1.41349 0.00472177 993.338 
85 2 56.424 0.858337 3.08372 1007.87 
86 2 56.1338 -1.54236 -0.575809 1005.42 
87 2 53.5854 1.25338 -0.458193 979.031 
88 2 53.509 -1.58642 2.52361 985.552 
89 1 58.9376 -1.09779 -0.518414 981.207 
90 1 59.9283 1.24943 2.71492 999.223 
91 1 62.299 40.0368 2.40908 992.364 
92 1 61.9087 1.66295 -0.589678 978.217 
93 2 62.5489 1.57645 2.38662 989.307 
94 2 62.2443 -2.08975 -0.535508 1002.69 
95 2 59.2462 1.45331 -0.58995 972.48 
96 2 59.909 -1.65305 2.12144 1002.15 
97 1 64.9984 -1.33911 -0.910194 970.344 
98 1 65.1232 0.749111 2.58155 973.628 
99 1 68.1819 -1.48869 2.7319 1006.76 
100 1 67.9076 1.28506 -1.00335 1020.76 
101 2 67.9565 0.862487 2.81651 967.685 
102 2 67.5429 -1.83218 -1.14974 982.545 
103 2 64.993 1.37702 -0.775331 976.105 
104 2 65.0463 -1.97179 2.55622 968.955 
105 1 71.1367 -1.74068 -1.34716 980.914 
106 1 70.6648 1.63 2.40711 1012.66 
107 1 73.2949 -1.65252 2.10354 982.384 
108 1 73.5367 1.35741 -0.304895 1000.83 
109 2 73.8177 1.26021 2.41806 1013.95 
110 2 73.8877 -1.69308 -1.28896 993.314 
111 2 71.0765 1.00722 -0.547621 977.263 
112 2 70.5873 -1.47518 2.48887 994.041 
113 1 76.8492 -2.09672 -0.0372227 1004.05 
114 1 76.9041 1.34732 2.55262 992.08 
115 1 79.3904 -2.05109 2.75008 1019.62 
116 1 79.5439 1.13751 -0.711934 1018.37 
117 2 79.6926 1.03484 2.27836 1006.3 
118 2 79.3891 -2.11769 -1.23264 1008.39 
119 2 76.4796 0.791837 -0.748866 987.857 
120 2 76.6281 39.883 2.30051 1020.84 
121 1 82.0634 39.9275 -0.978783 1016.94 
122 1 82.3535 1.31147 2.51647 999.519 
123 1 85.0204 -1.37865 1.70322 1001.37 
124 1 84.9931 1.73036 -0.472212 1006.7 
125 2 85.3818 1.16709 2.04255 1004.25 
126 2 84.9903 -1.79372 -0.599761 1014.05 
127 2 82.0578 1.26196 -0.629472 1014.57 
128 2 82.595 -1.97508 2.71772 1023.67 
129 1 88.0132 -1.54352 -1.06368 1022.56 
130 1 88.0821 1.23941 1.62137 1027.98 
131 1 90.9182 -1.72541 1.73406 1059.76 
132 1 90.9928 0.914021 -1.30747 1033.95 
133 2 90.9951 1.09166 2.32509 1046.82 
134 2 90.9703 -1.64692 -1.11342 1025.94 
135 2 87.7407 1.34002 -0.991489 1021.03 
136 2 87.8172 -1.64765 1.81183 1027.4 
137 1 94.2456 40.0204 -1.28103 1051.44 
138 1 94.0998 1.60823 1.72541 1047.81 
139 1 96.7864 -1.67159 2.56629 1044.5 
140 1 96.7599 1.41334 -1.14821 1064.31 
141 2 96.6547 1.14244 2.19422 1037.9 
142 2 96.9054 -1.72865 -0.995432 1018.78 
143 2 93.3038 1.34091 -0.500655 1048.76 
144 2 94.1126 39.9626 2.15142 1028.87 
145 1 99.6475 -1.24456 -0.801028 1041.91 
146 1 99.5816 1.0679 2.38556 1047.64 
147 1 102.718 -2.00905 1.95703 1051.34 
148 1 102.335 1.46317 -1.29086 1057.61 
149 2 102.29 0.971905 2.24328 1038.4 
150 2 102.949 -1.66574 -0.657898 1049.67 
151 2 99.317 1.60197 -1.40328 1052.48 
152 2 99.3032 -1.47512 2.51794 1043.94 
153 1 105.732 39.907 -1.14749 1059.69 
154 1 105.518 0.90734 1.87973 1060.74 
155 1 108.256 -1.64882 2.25302 1068.16 
156 1 109.091 1.25117 -1.54484 1050.54 
157 2 108.274 0.956635 1.72218 1052.67 
158 2 108.824 -1.37598 16.2656 1060.52 
159 2 105.27 1.07528 -0.912699 1049.77 
160 2 105.609 40.0596 2.03337 1036.58 
161 1 111.301 39.7068 -0.977771 1045.83 
162 1 111.308 1.1393 2.07908 1061.69 
163 1 114.01 -2.07065 1.72349 1044.1 
164 1 114.257 1.00636 -1.2771 1050.93 
165 2 114.319 0.795319 1.89495 1054.25 
166 2 114.2 -2.0828 -1.11669 1058.25 
167 2 111.728 1.58259 -0.729755 1048.64 
168 2 111.599 -1.80081 2.12144 1048.9 
169 1 117.262 -1.60259 -1.52237 1058.92 
170 1 117.124 0.962665 2.01025 1055.12 
171 1 120.43 -1.50109 1.86857 1086.71 
172 1 119.84 1.70075 -1.02635 1076.14 
173 2 119.921 1.42541 1.95199 1080.7 
174 2 119.942 -2.12079 -0.986306 1070.44 
175 2 117.314 1.16431 16.2794 1069.49 
176 2 117.259 -1.82763 2.04943 1055.32 
177 1 123.195 -1.58332 -1.21468 1067.85 
178 1 123.063 1.32364 1.907 1065.26 
179 1 125.956 -1.44396 2.02967 1083.11 
180 1 126.044 0.941442 -1.02267 1071.54 
181 2 125.53 1.12031 1.46005 1072.41 
182 2 125.978 -1.73749 -1.24566 1088.87 
183 2 122.139 0.773004 -1.76666 1087.22 
184 2 123.051 -2.02701 1.28094 1080.96 
185 1 129.041 -1.69083 -1.42803 1089.33 
186 1 129.314 1.10308 2.15826 1062.74 
187 1 131.884 -2.03825 2.09507 1087.33 
188 1 131.514 1.43172 -1.16576 1071.12 
189 2 131.92 0.862662 2.25776 1088.42 
190 2 131.499 -1.44507 -0.918532 1073.69 
191 2 128.938 1.55877 -1.35759 1097.73 
192 2 129.138 -1.78632 2.07851 1066.53 
193 1 134.807 -1.84279 -0.790861 1067.92 
194 1 134.392 1.17399 1.74314 1086.19 
195 1 137.771 -1.67144 1.78569 1103.21 
196 1 138.039 1.38914 -0.873675 1082.9 
197 2 138.025 1.43953 2.08888 1088.45 
198 2 137.452 -1.40239 -0.813225 1099.37 
199 2 134.569 1.50064 -1.15793 1063.09 
200 2 134.621 -1.48301 1.88264 1097.58 
201 1 141.22 -1.29263 -0.577036 1130.86 
202 1 140.74 1.20695 2.00495 1120.63 
203 1 143.535 -1.57432 1.76698 1088.48 
204 1 143.701 1.81988 -0.727685 1086.46 
205 2 143.449 1.39086 2.18468 1092.87 
206 2 143.646 -1.5139 -0.820933 1092.01 
207 2 141.132 1.32383 -0.549488 1107.13 
208 2 140.942 -1.49161 2.09022 1099.48 
209 1 146.958 -1.32069 -0.674256 1098.47 
210 1 146.393 1.60863 2.01625 1093.54 
211 1 149.48 -1.47241 1.97149 1093.55 
212 1 149.119 2.19822 -0.493481 1098.11 
213 2 149.29 1.97963 2.07302 1084.33 
214 2 149.298 40.0579 -0.635955 1095.31 
215 2 146.747 1.52343 -0.907122 1094.53 
216 2 146.68 -1.0942 2.4475 1110.03 
217 1 152.236 -1.60428 -0.901392 1092.51 
218 1 152.528 1.5816 2.31528 1091.22 
219 1 154.759 -2.09019 2.40441 1080.41 
220 1 155.1 0.897575 -0.598429 1081.62 
221 2 155.227 0.67465 2.32879 1083.86 
222 2 155.151 -1.8453 -0.843281 1067.47 
223 2 151.713 1.22476 -1.1872 1071.93 
224 2 152.015 -1.49992 2.46608 1094.8 
225 1 158.21 39.7895 -0.331331 1062.73 
226 1 157.645 0.905865 2.6127 1075.01 
227 1 160.441 -1.34652 2.41255 1068.92 
228 1 160.715 1.52402 -0.501959 1075.32 
229 2 160.724 1.49157 2.4048 1073.57 
230 2 160.523 -1.49476 -0.694192 1088.6 
231 2 157.807 1.481 -0.926753 1082.91 
232 2 157.742 -2.00551 2.37478 1090.98 
233 1 163.641 -1.78461 -1.18301 1088.17 
234 1 163.416 1.02581 2.37354 1082.79 
235 1 166.768 -1.29031 2.3101 1063.73 
236 1 166.652 0.971639 -1.04399 1078.92 
237 2 166.247 1.22215 2.42696 1061.57 
238 2 166.432 -1.91267 -1.04948 1050.76 
239 2 163.754 1.12262 -0.219319 1065.26 
240 2 163.654 -1.48783 2.62964 1053.99 
241 1 170.505 -1.56559 -0.47734 1068.41 
242 1 170.182 1.62271 2.48079 1048.29 
243 1 172.684 -1.44257 2.31823 1041.79 
244 1 172.697 1.74338 -0.904105 1072.67 
245 2 172.734 1.88044 2.70417 1063.51 
246 2 172.862 -1.19543 -0.589158 1071.53 
247 2 170.157 1.45566 -0.201305 1070.47 
248 2 170.072 -1.40641 2.37049 1069 
249 1 175.406 -1.1099 -0.063201 1037.58 
250 1 175.573 1.90231 2.36806 1050 
251 1 178.514 -1.19308 2.80263 1044.8 
252 1 179.14 1.28594 -0.466394 1043.14 
253 2 178.775 2.03847 2.77286 1046.44 
254 2 178.454 -1.45015 0.166203 1033.5 
255 2 175.346 1.66785 -0.335426 1050.19 
256 2 175.227 -1.75567 2.53307 1048.21 
257 1 181.739 -1.67104 -0.484436 1026.07 
258 1 181.59 1.45648 3.26438 1041.23 
259 1 184.821 -1.31552 2.73048 1042.91 
260 1 184.837 1.1549 -0.743489 1063.86 
261 2 184.644 1.62221 3.09442 1013.28 
262 2 184.556 -1.37297 0.0101328 1027.28 
263 2 181.63 1.09546 -1.31187 1047.73 
264 2 181.385 -1.39836 2.95277 1050.74 
265 1 187.128 -1.40859 -0.258791 1039.55 
266 1 187.329 1.86489 2.22486 1029.93 
267 1 190.215 -1.05845 2.23885 1029.1 
268 1 189.701 2.06727 -0.843772 1040.77 
269 2 189.994 1.96354 2.27961 1023.49 
270 2 190.045 -1.66413 -0.333975 1024.17 
271 2 187.325 1.15415 -0.189937 1043.38 
272 2 187.266 -2.03131 2.58267 1044.42 
273 1 193.322 -0.865844 -0.617182 1019.99 
274 1 192.528 1.66641 2.20938 1007.39 
275 1 195.807 -0.60386 2.31689 1011.75 
276 1 196.127 1.80776 -0.224537 994.599 
277 2 195.609 1.80012 2.09346 1007.65 
278 2 195.959 -1.12122 -0.558806 1013.07 
279 2 193.155 1.84919 -0.753919 1025.3 
280 2 192.893 -1.23374 2.55684 1019.23 
281 1 198.846 -1.59285 -0.541854 1020.16 
282 1 198.949 1.81981 2.14617 1024.8 
283 1 201.369 -1.42368 2.49596 994.367 
284 1 202.125 2.16471 -0.846006 1010.21 
285 2 201.658 2.0603 2.10648 1010.24 
286 2 201.355 -1.23596 -0.832887 1026.1 
287 2 198.908 1.84102 -0.927238 1043.13 
288 2 198.89 -0.846106 2.02965 998.303 
289 1 204.55 -0.921521 -0.289172 1033.96 
290 1 204.78 2.69292 2.42902 1006.89 
291 1 207.678 -0.834586 2.2111 1009.15 
292 1 207.699 2.0443 -0.884363 1018.9 
293 2 207.394 2.24818 2.07768 1014.69 
294 2 207.7 -0.683953 -0.636919 1019.16 
295 2 204.529 1.84618 -0.604379 1006.31 
296 2 203.919 -1.41359 2.82649 991.856 
297 1 210.454 -1.08133 -0.594246 1011.16 
298 1 210.349 1.78417 2.05416 1019.26 
299 1 213.355 -1.14247 2.73867 1015.74 
300 1 213.241 2.3519 -0.446502 1009.67 
301 2 213.395 2.28831 2.16425 983.877 
302 2 212.888 -0.769818 -0.697172 1007.29 
303 2 210.609 2.51596 -0.361937 1010.85 
304 2 210.319 -1.14134 2.44676 981.745 
305 1 215.931 -0.392893 -0.696515 997.568 
306 1 216.146 2.6178 2.41457 999.396 
307 1 218.653 -0.736531 2.12955 1006.03 
308 1 218.839 2.62516 -0.737033 994.598 
309 2 219.316 1.91411 3.06088 983.759 
310 2 219.037 -0.95702 -1.21121 998.626 
311 2 216.194 2.19532 -0.554438 993.072 
312 2 215.855 -0.387351 2.2181 1004.45 
313 1 222.051 0.0611957 -0.717637 996.054 
314 1 221.732 2.09558 3.27259 1002 
315 1 224.724 -0.570206 2.19375 962.78 
316 1 225.152 2.78163 0.553572 969.798 
317 2 224.457 2.15186 2.79446 983.729 
318 2 224.685 -0.818938 -0.173346 988.61 
319 2 221.593 2.8395 -0.170745 987.637 
320 2 221.936 -0.590029 2.2888 968.495 
321 1 227.555 -0.82253 -0.316615 981.89 
322 1 227.833 2.25168 3.05824 991.246 
323 1 230.683 -1.10199 2.61738 984.112 
324 1 230.673 2.41676 -0.159219 953.651 
325 2 230.66 2.87547 3.06986 955.135 
326 2 230.431 -0.146827 -0.338959 981.496 
327 2 227.877 2.35809 -0.0983583 974.168 
328 2 227.936 -0.676759 2.57844 968.368 
329 1 232.873 -0.415753 -0.931648 959.426 
330 1 233.213 2.20916 2.47041 954.583 
331 1 235.307 -1.25286 1.8323 965.753 
332 1 236.311 2.17736 -0.206074 961.752 
333 2 236.346 2.07411 3.06479 960.689 
334 2 236.49 -0.679004 -0.639356 970.052 
335 2 233.532 2.2166 -0.378086 968.749 
336 2 233.071 -0.511427 2.78466 987.451 
337 1 239.062 -0.830162 -0.15014 961.93 
338 1 239.118 2.13387 2.7099 966.177 
339 1 241.715 -0.638545 2.95668 949.952 
340 1 242.231 2.38669 -0.342937 956.569 
341 2 241.837 2.20079 2.99431 948.293 
342 2 241.792 -0.545819 -0.469407 961.109 
343 2 239.28 1.87577 -0.105561 959.169 
344 2 239.339 -0.649044 2.8711 946.867 
345 1 244.888 -0.716475 -0.616805 967.338 
346 1 244.519 2.15017 2.64511 969.102 
347 1 247.517 -0.255846 3.267 952.478 
348 1 247.84 2.11795 0.0987993 944.008 
349 2 246.959 2.15111 3.09983 957.079 
350 2 248.095 -0.604654 -0.338308 944.264 
351 2 244.975 1.90882 -0.174714 971.027 
352 2 244.497 -0.45263 3.46505 959.965 
353 1 250.954 -0.596876 0.0348858 955.376 
354 1 250.649 2.0964 3.01326 942.879 
355 1 253.996 -0.42887 3.10084 961.115 
356 1 253.193 2.43779 -0.431049 950.533 
357 2 253.832 2.49245 2.16782 933.181 
358 2 253.668 -0.763176 -0.154849 943.214 
359 2 250.698 2.15247 0.227539 955.947 
360 2 250.584 -0.398967 3.17843 949.75 
361 1 257.029 -0.822829 -0.403047 920.959 
362 1 256.706 2.56181 1.97138 927.734 
363 1 259.788 -0.352342 3.55722 962.472 
364 1 259.735 2.46753 -0.519044 937.319 
365 2 259.528 2.53029 2.6426 962.912 
366 2 259.694 -0.751107 -0.568086 935.524 
367 2 256.719 2.5586 -0.590167 945.432 
368 2 256.975 -0.4712 2.89379 945.933 
369 1 262.266 -0.671041 -0.202976 918.499 
370 1 262.628 2.26227 2.9272 934.915 
371 1 264.966 -0.941177 2.62992 921.622 
372 1 265.305 2.19893 0.394689 928.986 
373 2 265.138 2.39932 3.26448 918.267 
374 2 265.069 -0.432341 -0.247801 915.624 
375 2 262.566 2.53548 -0.408231 931.936 
376 2 262.344 -0.717073 2.53373 942.236 
377 1 267.914 -0.411706 0.231655 935.63 
378 1 267.909 2.09947 3.23737 942.572 
379 1 270.753 -0.615009 2.7824 930.076 
380 1 271.212 2.66418 -0.207219 919.78 
381 2 270.751 2.20588 3.53052 916.829 
382 2 270.885 -0.694036 0.100518 950.605 
383 2 267.87 2.29295 -0.0917246 945.154 
384 2 267.774 -0.680409 2.79597 910.092 
385 1 273.837 -0.783868 0.0823321 933.75 
386 1 274.086 2.00298 2.76394 919.422 
387 1 276.456 -1.0738 3.01942 911.962 
388 1 276.62 1.78861 -0.0199334 920.628 
389 2 276.654 2.19622 2.99516 901.536 
390 2 276.539 -0.952659 0.18966 937.995 
391 2 273.632 1.99869 0.169922 905.481 
392 2 273.595 -0.981668 3.17064 917.102 
393 1 279.527 -0.939365 -0.577136 929.396 
394 1 279.719 2.25111 3.03032 915.111 
395 1 282.832 -1.18291 2.8577 922.738 
396 1 282.376 1.55959 0.0759728 910.174 
397 2 282.917 2.44472 3.25647 937.71 
398 2 282.322 -1.39225 -0.135547 900.352 
399 2 279.285 2.06322 0.162042 927.482 
400 2 280.386 -0.43533 3.22189 911.945 
401 1 -4.32106 4.47798 -0.30038 917.568 
402 1 -4.18374 7.966 2.25571 898.064 
403 1 -1.57009 5.33173 3.02317 908.36 
404 1 -1.56769 7.65972 0.0750987 907.054 
405 2 -1.50031 8.07845 3.35728 909.88 
406 2 -1.43847 5.00362 -0.28606 890.526 
407 2 -4.3997 8.12043 -0.185362 913.215 
408 2 -4.16588 5.24029 2.47117 910.506 
409 1 1.48931 4.88473 -0.284292 930.081 
410 1 1.96388 8.08616 2.98238 900.328 
411 1 4.31236 4.48174 2.91534 912.017 
412 1 4.30916 7.42367 0.0367632 929.402 
413 2 4.38599 7.6423 2.89312 915.423 
414 2 4.17459 4.84528 0.229146 905.932 
415 2 1.39747 7.86826 0.397609 897.799 
416 2 1.15584 5.3082 3.11522 929.707 
417 1 7.27852 4.78955 0.0287302 938.641 
418 1 6.73628 7.61583 2.87903 909.473 
419 1 9.75672 4.24875 2.93617 909.787 
420 1 10.4372 7.75144 0.126326 924.692 
421 2 9.83348 7.60111 3.46607 932.643 
422 2 10.5392 4.40003 0.30993 932.661 
423 2 7.26084 7.15762 0.0870672 943.164 
424 2 6.89563 4.09406 2.69786 918.265 
425 1 13.2108 4.44694 -0.177356 931.007 
426 1 12.7518 7.58461 2.53338 930.759 
427 1 16.0564 4.56385 3.19381 923.89 
428 1 15.7605 7.28695 -0.212346 915.111 
429 2 15.793 7.72653 2.60076 923.346 
430 2 15.839 4.3201 -0.191956 918.52 
431 2 13.0652 7.43582 -0.119699 923.393 
432 2 13.08 4.94958 3.05222 930.227 
433 1 19.1717 4.1083 -0.416988 938.258 
434 1 18.8477 7.05074 2.48245 941.554 
435 1 22.2433 4.44216 2.79174 939.243 
436 1 21.9085 7.51619 -0.434178 926.776 
437 2 22.0169 7.12443 2.79003 959.194 
438 2 21.7629 4.02811 -0.574336 958.771 
439 2 19.1142 7.23812 -0.382182 926.629 
440 2 18.6139 4.55865 2.32003 924.185 
441 1 24.5623 3.92615 -0.0960982 930.017 
442 1 24.3822 7.68136 2.60149 948.432 
443 1 27.7507 3.69858 2.54294 941.789 
444 1 27.3655 7.6526 -0.296771 946.242 
445 2 27.6093 7.03505 2.97238 933.084 
446 2 27.6932 3.76824 0.0854215 931.573 
447 2 24.6275 7.15011 0.219749 954.368 
448 2 24.5917 3.91041 2.91377 944.368 
449 1 30.3068 4.10032 0.144416 932.913 
450 1 30.5511 7.04365 3.03306 949.23 
451 1 33.4001 3.88898 3.01459 922.774 
452 1 33.0058 7.02706 0.0807595 959.847 
453 2 33.391 6.75989 2.55148 940.182 
454 2 33.3914 4.08089 -0.334785 944.802 
455 2 30.3923 7.61766 -0.37104 948.184 
456 2 30.5851 4.4314 2.96485 938.89 
457 1 36.4631 4.09413 -0.301589 932.502 
458 1 36.0278 7.19965 2.4422 953.323 
459 1 38.8174 3.41166 2.2658 957.562 
460 1 38.8118 6.95628 -0.916018 957.883 
461 2 38.8875 7.31592 2.13479 972.088 
462 2 39.1447 3.7596 -0.535499 956.444 
463 2 35.6674 7.25398 -0.375461 961.861 
464 2 36.5088 4.09458 2.46156 948.698 
465 1 41.5971 4.68279 -0.894371 958.423 
466 1 41.6329 7.43213 2.12217 966.807 
467 1 44.8113 4.51334 2.37825 973.22 
468 1 44.7399 7.90159 -0.732965 958.019 
469 2 45.0264 7.47288 2.18638 963.382 
470 2 45.2008 4.67139 -0.545174 973.536 
471 2 41.6336 7.11329 -0.963893 939.419 
472 2 42.2796 4.31543 2.32632 961.569 
473 1 47.8093 4.81137 -0.690898 990.176 
474 1 47.4816 7.35618 2.37239 960.075 
475 1 50.6906 4.90619 2.49459 988.471 
476 1 50.7342 7.49362 -0.967596 1007.42 
477 2 50.8729 7.7079 2.27052 982.896 
478 2 51.0301 4.71661 -0.433872 990.971 
479 2 47.5537 7.77486 -0.524066 971.224 
480 2 47.85 4.44597 2.35531 960.099 
481 1 53.3954 4.5072 -0.608587 966.307 
482 1 53.4983 6.99954 2.17764 940.164 
483 1 56.0569 3.92903 2.35889 1001.57 
484 1 56.2314 7.66645 -0.356715 987.265 
485 2 56.3879 7.14175 2.20601 1003.34 
486 2 56.4275 4.19252 -0.320323 976.686 
487 2 53.6957 7.38511 -0.701076 988.744 
488 2 53.5173 4.43549 2.16009 974.867 
489 1 59.3666 4.19246 -0.894078 997.36 
490 1 59.2794 7.59887 2.1256 999.469 
491 1 62.3697 4.547 2.99558 986.874 
492 1 62.2079 7.45747 -0.299176 994.242 
493 2 62.1921 7.3953 2.31565 974.063 
494 2 62.0216 4.45185 -0.535428 993.925 
495 2 59.5 7.61772 -0.398239 988.09 
496 2 59.4537 4.25427 2.43011 998.706 
497 1 64.9232 3.87946 -0.636664 1013.97 
498 1 64.9443 6.60733 1.91394 988.938 
499 1 67.5484 3.96641 2.64439 983.902 
500 1 68.0207 7.52209 -0.500339 1008.15 
501 2 68.0129 6.8412 2.36352 996.437 
502 2 67.8052 3.46343 -0.255294 1008.47 
503 2 65.0273 7.14728 -0.425723 979.938 
504 2 64.8703 4.19036 2.3932 1009.11 
505 1 71.1325 3.74404 -0.670249 983.443 
506 1 70.7309 6.85643 2.68914 1007.38 
507 1 74.0217 4.29518 2.3424 1016.05 
508 1 73.2262 6.50608 -0.562819 1003.73 
509 2 73.4663 7.13542 2.44254 1016.35 
510 2 73.8454 3.75904 -0.933901 1002 
511 2 70.7514 6.8998 -0.626799 1008.67 
512 2 71.0084 4.14128 2.52386 988.748 
513 1 76.5969 3.878 -0.831186 1021.31 
514 1 76.1397 7.42896 2.41274 1012.2 
515 1 79.1425 4.15187 2.43588 995.936 
516 1 78.9604 7.17136 -0.385465 992.045 
517 2 79.6054 6.65828 2.42212 1024.33 
518 2 79.1376 4.18476 -0.406204 987.022 
519 2 76.1691 6.97347 -0.429773 992.301 
520 2 76.6322 3.99831 2.08474 1004.86 
521 1 81.8538 4.48933 -0.330968 1012.33 
522 1 82.7495 7.4998 2.07581 1033.19 
523 1 85.5295 4.09442 2.40138 1023.11 
524 1 85.4231 7.21407 -0.818188 1017.97 
525 2 85.3883 6.87023 1.95782 1051.59 
526 2 85.3693 4.25616 -1.19158 1009.67 
527 2 82.1007 7.09943 -0.428221 1027.89 
528 2 82.8089 3.90833 2.17235 1018.57 
529 1 88.0601 4.27364 -0.823812 1014.19 
530 1 88.8632 6.63171 3.19796 1025.07 
531 1 90.75 4.04668 2.26847 1045.69 
532 1 91.1012 7.42365 -1.32972 1031.29 
533 2 91.1543 6.99965 2.78358 1036.8 
534 2 90.6049 3.92369 -1.12822 1009.5 
535 2 88.3527 7.18727 -0.913359 1018.65 
536 2 88.0783 3.7845 2.48484 1027.74 
537 1 93.0868 4.0243 -1.07767 1016.34 
538 1 94.0381 6.94102 2.16252 1040.61 
539 1 96.7097 4.05606 1.05775 1051.22 
540 1 96.5163 7.24725 -1.22288 1041.35 
541 2 96.9336 7.18547 1.75155 1025.48 
542 2 97.0412 4.43313 -1.50174 1048.93 
543 2 93.9936 6.90678 -1.07532 1017.84 
544 2 94.0151 4.47612 1.65722 1030.98 
545 1 99.4269 4.09386 -1.05904 1053.78 
546 1 99.6968 7.28065 1.95358 1045.19 
547 1 102.199 4.36438 2.21329 1046.8 
548 1 102.657 7.24462 -1.18397 1054.15 
549 2 102.726 7.25893 2.30465 1040.04 
550 2 102.491 4.1785 -1.23519 1053.24 
551 2 99.7039 7.3182 -0.793567 1039.52 
552 2 99.387 3.6607 1.62991 1044.67 
553 1 105.336 3.92594 -1.38689 1058.39 
554 1 105.606 7.34994 1.89086 1045.83 
555 1 108.199 3.57752 1.49705 1063.19 
556 1 108.034 7.67454 -1.08015 1074.17 
557 2 108.35 7.71856 2.11298 1066.74 
558 2 108.731 4.26593 -1.27716 1051.72 
559 2 105.456 7.76416 -1.34271 1057.77 
560 2 105.597 4.86137 1.06882 1051.16 
561 1 111.312 4.12432 -0.989486 1062.7 
562 1 111.132 6.82302 2.32911 1072.71 
563 1 114.526 3.83599 1.44857 1065.09 
564 1 114.698 7.88272 -1.33419 1059.72 
565 2 114.645 7.74876 2.03659 1076.13 
566 2 114.598 3.52758 -0.971488 1067.31 
567 2 111.919 7.55075 -1.25298 1048.85 
568 2 111.952 4.33164 1.94216 1050 
569 1 117.047 3.65805 -1.10396 1075.23 
570 1 117.227 7.00854 1.54375 1053.16 
571 1 119.802 4.07762 2.00734 1071.91 
572 1 119.76 7.37823 -1.12119 1080.22 
573 2 120.244 7.07157 1.82426 1068.86 
574 2 119.966 4.1263 -0.491373 1078.19 
575 2 117.182 6.72891 -0.938449 1061.48 
576 2 116.897 3.94722 2.27071 1058.08 
577 1 122.873 4.09961 -1.15402 1084.82 
578 1 122.653 6.67635 2.12815 1078.68 
579 1 126.011 4.28361 1.44679 1063.31 
580 1 125.455 7.37664 -0.913334 1078.69 
581 2 126.578 6.75777 2.13064 1074.83 
582 2 125.7 4.80691 -1.38898 1086.35 
583 2 122.424 7.90995 -1.19246 1067.18 
584 2 122.82 4.32113 1.32572 1071.54 
585 1 128.694 4.37461 -1.3165 1077.51 
586 1 129.431 7.42196 2.20373 1095.46 
587 1 132.22 3.90383 2.05199 1097.47 
588 1 131.942 6.92462 -0.837544 1086.09 
589 2 131.81 7.08899 2.17572 1061.5 
590 2 131.602 4.27818 -1.1114 1073.95 
591 2 128.214 7.28181 -0.851973 1080.55 
592 2 129.042 3.8666 1.97445 1069.16 
593 1 134.839 4.16468 -1.15836 1095.34 
594 1 135.232 7.15671 2.11995 1089.33 
595 1 138.282 4.13595 2.10332 1080.87 
596 1 137.623 7.43096 -0.983388 1107 
597 2 137.86 7.28247 1.73471 1093.05 
598 2 137.965 4.11526 -0.690343 1108.32 
599 2 134.727 7.29727 -1.25533 1064.81 
600 2 134.829 4.13889 1.60722 1071.18 
601 1 140.384 4.62111 -1.35967 1102.02 
602 1 140.744 7.18464 2.30135 1105.28 
603 1 143.5 4.63647 1.98341 1089.66 
604 1 143.632 7.5706 -0.434789 1115.12 
605 2 143.587 7.51227 1.99761 1115.76 
606 2 144.149 4.33574 -0.557119 1109.84 
607 2 140.778 7.43146 -1.23281 1134.02 
608 2 140.793 4.37978 2.27515 1107.6 
609 1 146.261 1.35453 14.3904 1103.32 
610 1 146.777 4.83514 -0.281531 1081.8 
611 1 150.289 4.43421 2.40959 1097.64 
612 1 149.673 7.45209 -0.492627 1094.02 
613 2 150.221 7.36442 1.98513 1104.67 
614 2 149.697 4.63506 -0.726456 1089.86 
615 2 146.39 7.15573 -0.583139 1085.58 
616 2 146.492 4.9018 2.30624 1096.33 
617 1 152.449 4.4884 -0.60314 1072.43 
618 1 152.719 7.44767 2.09268 1093.46 
619 1 155.242 4.81757 2.1168 1080.44 
620 1 155.355 7.75741 -0.735013 1087.24 
621 2 155.287 7.39809 2.4726 1085.78 
622 2 154.984 4.89073 -0.56844 1083.96 
623 2 152.529 7.98381 -0.503923 1095.09 
624 2 152.892 4.04269 2.29229 1074.09 
625 1 158.289 4.58497 -0.925483 1071.74 
626 1 158.155 7.50257 2.30847 1074.93 
627 1 160.631 4.00416 2.47804 1083.88 
628 1 160.922 7.57526 -1.08794 1073.79 
629 2 161.119 7.92947 2.61584 1069.26 
630 2 160.788 4.70859 -0.427926 1090.46 
631 2 158.584 7.26299 -0.436234 1080.75 
632 2 157.761 4.16259 1.81753 1079.11 
633 1 163.304 4.93516 0.110201 1083.96 
634 1 163.886 7.94521 2.55724 1085.38 
635 1 166.479 3.91532 2.26993 1055.09 
636 1 166.447 7.15703 -0.534083 1083.58 
637 2 166.299 7.63654 2.3835 1054.54 
638 2 166.922 4.47487 -0.454257 1088.73 
639 2 163.683 7.24442 -1.08592 1068.83 
640 2 163.761 4.64476 2.63102 1056.75 
641 1 169.476 4.36913 -0.584956 1079.12 
642 1 169.925 6.68068 2.45293 1075.92 
643 1 172.88 4.52836 2.36533 1047.6 
644 1 172.935 7.41591 -1.14162 1041.48 
645 2 172.699 7.02425 2.79962 1064.35 
646 2 172.783 4.3879 -0.300115 1060.73 
647 2 169.49 7.09188 -0.110853 1076.39 
648 2 169.197 4.23615 2.34911 1066.72 
649 1 175.627 4.42457 -0.430186 1055.51 
650 1 175.856 7.37842 2.13401 1059.07 
651 1 178.496 4.3621 2.44478 1017.31 
652 1 178.603 7.51206 -0.351457 1056.56 
653 2 178.675 7.60216 2.17677 1041.57 
654 2 178.748 4.64353 -0.00339823 1068.81 
655 2 175.251 7.43143 -0.519089 1050.18 
656 2 175.59 4.82035 1.99336 1048.85 
657 1 181.58 4.63574 -0.467854 1052.19 
658 1 181.905 6.73231 2.3248 1034.7 
659 1 184.488 4.05177 2.50226 1044.09 
660 1 183.906 8.59081 -0.320533 1039.79 
661 2 184.546 7.07367 1.86333 1034.58 
662 2 184.505 3.88486 -0.35023 1028.17 
663 2 181.55 7.48548 -0.239009 1032.68 
664 2 181.502 4.43929 2.66838 1040.67 
665 1 186.715 5.21563 -0.205994 1020.86 
666 1 187.244 7.73257 2.17287 1009.97 
667 1 190.106 4.66443 2.00671 1038.51 
668 1 190.372 7.40656 -0.655479 1038.92 
669 2 190.297 8.00651 1.82816 1042.02 
670 2 189.806 4.67826 -0.762019 1045.72 
671 2 187.39 7.84795 -0.619722 1065.71 
672 2 187.542 4.82564 2.506 1044.16 
673 1 193.487 4.88547 -0.492903 1031.91 
674 1 193.137 7.92532 2.31144 1023.89 
675 1 195.92 4.14816 2.4614 1016.57 
676 1 196.352 7.30114 -0.741491 1022.34 
677 2 196.021 8.20314 2.25307 1027.85 
678 2 196.165 4.57011 -0.512071 1026.45 
679 2 192.845 7.44409 -0.746591 1009.15 
680 2 193.005 4.67747 2.41363 1028.85 
681 1 199.275 4.58137 -1.04379 1017.93 
682 1 198.456 7.83671 2.14267 1007.87 
683 1 201.762 4.97795 2.21077 1012.14 
684 1 201.48 8.12503 -0.600561 1015.6 
685 2 201.315 8.01699 2.11686 1016.45 
686 2 201.989 4.74999 -1.44192 1025.78 
687 2 198.9 7.72068 -0.764188 1022.33 
688 2 198.734 4.67837 2.41228 1019.25 
689 1 204.806 5.10784 -1.2856 1015.16 
690 1 204.875 7.42567 1.75795 991.385 
691 1 207.674 4.81773 1.95776 1024.98 
692 1 207.809 8.09504 -0.605844 1009.14 
693 2 207.423 7.78496 2.58071 998.479 
694 2 207.362 4.96918 -0.598669 997.583 
695 2 204.551 8.1609 -0.929964 1023.2 
696 2 203.984 5.24101 2.57345 1013.07 
697 1 211.072 5.92047 -0.0795575 991.291 
698 1 210.696 8.31729 2.68945 1009.06 
699 1 212.982 4.67539 2.37206 1006.69 
700 1 213.368 8.6116 -0.012869 997.341 
701 2 213.455 7.89445 2.61839 1016.39 
702 2 213.382 5.32032 -0.19076 1038.36 
703 2 210.292 8.44922 -0.436321 1018.71 
704 2 210.504 5.69577 2.43695 1001.94 
705 1 216.347 5.34598 -0.737705 1028.78 
706 1 216.396 7.99331 3.14745 977.113 
707 1 219.381 5.71685 2.38691 1001 
708 1 218.909 8.35096 -0.814797 999.852 
709 2 219.051 8.36106 2.49771 1001.09 
710 2 219.234 5.19505 -0.620742 994.057 
711 2 216.005 8.27813 -0.247327 1006.9 
712 2 216.505 5.36249 2.45724 1015.98 
713 1 222.168 5.32838 0.170714 1002.69 
714 1 222.124 8.85566 2.18946 988.088 
715 1 225.037 5.81431 2.56978 996.03 
716 1 224.541 7.92078 -0.868244 976.166 
717 2 224.987 8.2448 2.67826 978.621 
718 2 225.016 5.46682 -0.251997 990.688 
719 2 222.295 8.12392 -0.351005 976.686 
720 2 222.19 5.64437 2.81173 996.077 
721 1 228.043 5.41712 -0.45181 975.38 
722 1 227.862 8.45076 2.96676 1009.01 
723 1 230.995 5.50396 3.11733 980.86 
724 1 230.931 8.40859 -0.769904 988.804 
725 2 230.565 8.78136 2.05822 980.5 
726 2 230.661 5.0262 -0.229433 971.086 
727 2 227.732 8.46097 0.0233772 989.766 
728 2 227.686 5.30705 2.63818 958.799 
729 1 233.449 5.56756 -0.319386 973.901 
730 1 233.471 8.96305 2.15187 966.308 