ITEM: TIMESTEP
10000000
ITEM: NUMBER OF ATOMS
8400
ITEM: BOX BOUNDS pp pp pp
-5.9099547646241319e+00 2.8359995476463484e+02
-2.1446273254920634e+00 4.0174627325491812e+01
-1.7757301867509554e+00 1.6325730186751606e+01
ITEM: ATOMS id type x y z f_TolTpA 
1 1 -4.73274 -1.99196 -1.05711 916.201 
2 1 -4.19857 1.29596 2.58069 898.378 
3 1 -1.16477 -1.00551 2.18091 894.481 
4 1 -1.61004 1.54352 -1.0455 901.678 
5 2 -1.28744 1.45223 3.0019 906.213 
6 2 -1.40622 -1.94607 -0.649166 889.886 
7 2 -3.93997 1.46543 -0.448502 907.465 
8 2 -4.37763 -1.73207 2.25158 909.006 
9 1 1.28708 -2.08491 -0.496414 899.041 
10 1 1.38372 1.45327 2.21195 890.427 
11 1 4.18872 -1.79614 2.11093 903.601 
12 1 4.00675 1.12091 -1.24024 908.196 
13 2 3.93096 1.76109 2.53038 917.734 
14 2 4.56854 -1.67611 -0.556355 925.598 
15 2 1.33554 1.28604 -1.24667 919.987 
16 2 1.18415 -1.73011 2.33567 908.347 
17 1 6.94357 -1.8331 16.2579 896.123 
18 1 6.96126 1.11302 1.89025 921.856 
19 1 10.2685 -1.79567 2.55765 918.471 
20 1 10.1616 1.57468 -0.589058 924.801 
21 2 9.80915 1.37038 2.11542 923.415 
22 2 9.54814 -1.75373 -0.861777 892.671 
23 2 6.81267 1.71958 -0.965535 896.368 
24 2 6.92184 -1.42509 2.40183 927.629 
25 1 12.7469 -1.4991 -1.4826 939.485 
26 1 12.7749 1.9014 2.61641 915.536 
27 1 15.3691 -1.27964 2.25202 941.039 
28 1 15.9002 1.44846 -0.609565 918.899 
29 2 16.3695 1.52758 2.40504 923.976 
30 2 15.6991 -1.27809 -0.759268 916.279 
31 2 13.1296 0.910391 -0.55376 934.577 
32 2 13.0822 -1.54277 2.54557 938.229 
33 1 18.3574 -1.2655 -0.589702 942.2 
34 1 19.0625 1.34151 2.09524 941.177 
35 1 21.6593 -1.8244 2.13122 946.194 
36 1 21.7744 1.67351 -0.799705 946.782 
37 2 21.6607 1.37276 2.44203 955.724 
38 2 21.4308 -1.04067 -1.23039 944.159 
39 2 18.7461 1.58955 -0.285443 944.122 
40 2 19.0747 -1.29266 2.44236 931.415 
41 1 24.4329 -1.41524 -1.19566 941.635 
42 1 24.6768 1.15938 2.54816 938.652 
43 1 27.4991 -1.00527 1.95 936.548 
44 1 27.5555 1.84654 -1.23153 958.191 
45 2 27.4204 1.27349 2.66924 955.125 
46 2 27.33 -1.41879 -1.01513 945.928 
47 2 24.3424 1.3536 -1.11352 942.58 
48 2 24.5617 -1.44087 2.10506 964.095 
49 1 30.0078 -1.30709 -1.1162 939.733 
50 1 30.3157 1.99247 2.04601 935.079 
51 1 32.9939 -1.56558 1.84779 946.111 
52 1 33.1853 2.25433 -0.917737 963.091 
53 2 32.8756 1.52879 2.4668 960.859 
54 2 32.9255 -1.58533 -1.12575 949.2 
55 2 30.2548 2.01775 -0.927022 929.499 
56 2 30.1695 -1.27077 1.60638 967.042 
57 1 35.9712 -1.5221 -0.709976 956.392 
58 1 36.1895 1.56198 2.09682 958.721 
59 1 39.2557 -1.16581 1.34685 961.931 
60 1 38.5361 2.06407 -0.508885 951.781 
61 2 38.8865 1.7234 2.07326 951.286 
62 2 38.6653 -1.03497 -0.9418 957.001 
63 2 35.7143 1.66576 -0.552296 943.419 
64 2 36.2872 -1.39668 2.20357 967.542 
65 1 42.4784 -1.7735 -0.903405 965.289 
66 1 41.6508 1.13378 2.66252 954.958 
67 1 44.6519 -1.13634 1.92641 952.954 
68 1 45.0524 2.05133 -0.743085 952.54 
69 2 44.511 2.12286 2.04351 982.794 
70 2 45.2408 -1.1455 -0.301586 952.114 
71 2 41.5736 1.87125 -0.694555 950.975 
72 2 41.7205 -1.63324 1.97958 983.671 
73 1 48.0562 -1.12026 -0.415699 983.978 
74 1 47.4059 2.02107 1.93912 974.655 
75 1 50.6019 -0.851902 2.90593 986.518 
76 1 50.662 1.88156 -0.667748 960.763 
77 2 50.4 2.24646 2.44354 968.631 
78 2 50.6016 -0.613093 -0.944323 987.28 
79 2 47.7929 1.95511 -0.340475 959.23 
80 2 47.6776 -0.812391 2.31564 957.417 
81 1 54.0473 -0.786922 -0.879129 957.731 
82 1 53.2435 1.75909 2.46955 976.523 
83 1 56.2566 -0.93328 2.591 953.793 
84 1 56.2995 2.40941 -0.457289 984.224 
85 2 56.1877 2.28168 2.32786 964.698 
86 2 56.3863 -1.08407 -0.0513489 983.457 
87 2 53.4912 2.16474 -0.307072 967.831 
88 2 53.1475 -1.03652 2.82465 981.908 
89 1 58.9328 -1.08696 -0.876096 981.37 
90 1 59.1023 2.0952 2.66069 998.531 
91 1 62.041 -0.651039 2.91054 1005.22 
92 1 61.8993 1.69942 -0.660741 999.724 
93 2 61.9677 1.97964 2.84526 985.139 
94 2 61.886 -0.71925 -0.474939 1000.63 
95 2 59.089 2.6909 -0.232859 993.316 
96 2 59.0683 -0.904386 2.71587 997.457 
97 1 65.1984 -0.475447 -0.530143 998.697 
98 1 64.8297 1.8751 2.76878 1018.3 
99 1 68.0828 -0.712605 2.28051 997.29 
100 1 67.7937 2.60999 -0.181766 1000.78 
101 2 67.7055 2.0758 2.4784 1007.47 
102 2 67.9201 -0.75862 -0.519226 993.609 
103 2 65.3715 2.17362 -0.724224 992.578 
104 2 64.9011 -0.671131 2.74918 999.571 
105 1 70.3398 -1.46562 -0.570562 1020.33 
106 1 70.3428 2.43373 2.69385 997.303 
107 1 73.6391 -0.796606 2.5338 996.537 
108 1 73.2508 1.7824 -0.920967 994.709 
109 2 72.8286 1.69607 2.74299 999.606 
110 2 73.4979 -1.28279 -0.257694 977.746 
111 2 70.8056 2.80745 0.0235727 999.025 
112 2 70.4867 -1.68563 2.08091 987.805 
113 1 76.4133 -1.2887 -0.500175 1019.41 
114 1 76.4965 2.40333 2.59393 996.688 
115 1 79.1696 -0.48931 2.75644 981.617 
116 1 78.8659 2.04754 0.00577971 999.603 
117 2 79.1018 2.2675 2.80344 1024.86 
118 2 79.8613 -1.19984 -0.455094 994.881 
119 2 76.1361 1.74378 -0.778385 1002.71 
120 2 76.7536 -0.823051 2.32569 998.443 
121 1 82.3159 -0.6817 -0.261716 994.168 
122 1 82.2572 2.65413 2.91863 1029.44 
123 1 85.074 -0.96282 3.01445 1011.14 
124 1 84.945 2.58153 -0.24598 1010.79 
125 2 85.1718 2.31555 2.83897 1023.13 
126 2 84.9673 -1.26609 -0.332697 987.334 
127 2 82.0937 2.10323 0.0464678 1007.85 
128 2 82.2742 -1.39108 2.32401 985.682 
129 1 87.9396 -0.705332 -0.409692 1006.48 
130 1 88.3044 2.55843 3.05249 1021.43 
131 1 90.8962 -0.63667 3.22156 1020.98 
132 1 91.1384 2.59522 0.677372 1021.38 
133 2 90.7992 1.9834 3.33689 1006.46 
134 2 90.899 -0.784228 0.213149 1031.58 
135 2 87.7854 2.56024 -0.0058207 1016.07 
136 2 88.0463 -0.845209 2.80138 1010.68 
137 1 93.3097 -1.52137 -0.315674 1024.73 
138 1 93.9463 1.93378 3.07725 1036.54 
139 1 96.5268 -0.781283 2.33444 1009.03 
140 1 96.31 1.94139 -0.447809 997.66 
141 2 96.6316 2.31701 2.73562 1039.38 
142 2 96.3082 -0.948149 -0.644033 1051.05 
143 2 93.755 2.61168 -0.431714 1025.23 
144 2 93.7362 -0.812532 2.44422 1034.3 
145 1 99.345 -0.662384 -0.444279 1019.26 
146 1 100.065 2.34459 3.5069 1034.83 
147 1 102.821 -0.923015 2.40661 1042.66 
148 1 101.977 3.07321 -0.129887 1045.7 
149 2 102.574 2.49508 2.65619 1038.83 
150 2 102.863 -1.1136 -0.302301 1043.61 
151 2 99.7191 1.84965 -0.0300161 1033.27 
152 2 99.3844 -0.811654 3.11082 1052.41 
153 1 105.636 -0.861313 0.1805 1048.91 
154 1 105.159 2.24111 3.02995 1060.03 
155 1 108.486 -0.353762 2.73385 1048.13 
156 1 107.859 1.65751 -0.533445 1055.18 
157 2 108.496 2.13267 3.04463 1059.22 
158 2 108.179 -1.03237 -0.318031 1041.67 
159 2 105.323 2.33748 -0.175824 1030.8 
160 2 105.547 -0.566411 2.89272 1031.75 
161 1 111.386 -1.43432 -0.291657 1018.43 
162 1 111.747 1.76486 2.88475 1059.13 
163 1 114.435 -1.11119 2.24178 1065.02 
164 1 114.046 1.88598 -0.339079 1057.78 
165 2 114.414 1.66258 2.11049 1063.9 
166 2 114.526 -0.931971 -0.417057 1051.93 
167 2 111.611 1.53891 -0.855656 1050.18 
168 2 111.022 -0.845565 3.02241 1066.06 
169 1 117.552 -1.07188 0.00612303 1053.72 
170 1 117.497 1.81673 3.06418 1070.89 
171 1 120.297 -2.11322 3.27424 1072.66 
172 1 119.958 1.73979 -0.662851 1070.94 
173 2 120.375 1.65161 2.40285 1072.51 
174 2 120.128 -1.18297 -0.679757 1072.14 
175 2 116.83 1.75219 -0.637497 1079.7 
176 2 116.944 -1.34682 3.31408 1074.91 
177 1 122.969 -0.942635 -0.549002 1061.12 
178 1 123.633 1.40959 2.40901 1086.75 
179 1 126.251 -1.16993 2.24943 1079.56 
180 1 126.131 1.87611 -1.07598 1065.45 
181 2 126.151 1.60254 2.33651 1078.2 
182 2 126.569 -1.30594 -0.745478 1055.02 
183 2 123.696 1.37955 -0.518781 1063.28 
184 2 123.362 -0.947351 3.0193 1070.5 
185 1 129.223 -1.38008 -0.615873 1083.67 
186 1 128.833 1.96374 1.96848 1079.7 
187 1 131.726 -1.13895 1.64895 1062.8 
188 1 131.49 1.53853 -1.09426 1055.8 
189 2 132.065 1.76816 1.73771 1093.54 
190 2 131.856 -1.21673 -1.12401 1095.94 
191 2 129.061 2.11458 -0.655463 1071.2 
192 2 129.071 -0.845412 2.16501 1078.26 
193 1 134.73 -1.58908 -0.563803 1093.76 
194 1 134.928 1.11358 2.44226 1107.09 
195 1 137.231 -1.30269 2.48121 1094.52 
196 1 138.262 1.16684 -0.924071 1087.7 
197 2 137.986 1.30673 2.59189 1093.43 
198 2 138.436 -1.54429 -0.972831 1123.86 
199 2 135.886 1.4246 -0.179204 1097.45 
200 2 134.222 -1.35928 2.35903 1096.18 
201 1 141.499 -1.37525 -0.822938 1110.92 
202 1 140.425 1.99455 3.38426 1101.89 
203 1 144.044 -1.33191 2.29527 1125.19 
204 1 144.003 1.88747 -0.931538 1123.89 
205 2 143.948 2.07007 2.39404 1114.29 
206 2 144.365 -1.17127 -0.195678 1108.33 
207 2 141.298 1.39433 -1.3695 1114.1 
208 2 140.95 -0.839112 2.3138 1122.75 
209 1 147.127 -1.09579 -0.602718 1138.74 
210 1 146.562 2.05412 2.85198 1101.2 
211 1 150.092 -1.28698 2.30348 1099.49 
212 1 149.993 1.14696 -0.464863 1103.38 
213 2 150.273 1.71978 2.04138 1087.03 
214 2 150.038 -1.52312 -0.582659 1103.78 
215 2 147.134 1.47007 -0.337229 1119.05 
216 2 147.558 -1.98619 3.30596 1111.33 
217 1 152.692 -1.35583 -0.621384 1109.77 
218 1 153.115 1.5998 2.66786 1102.83 
219 1 155.348 -1.40836 2.92598 1094.72 
220 1 155.76 1.88007 -0.463622 1102.51 
221 2 155.84 1.51049 2.61073 1089.2 
222 2 155.928 -1.24599 -0.882689 1099.55 
223 2 152.856 1.64188 0.12747 1089.93 
224 2 152.65 -1.16161 2.64964 1115.06 
225 1 158.072 -1.19603 -0.274985 1079.13 
226 1 158.393 1.79323 2.3027 1059.82 
227 1 161.068 -1.33421 2.84521 1099.83 
228 1 161.278 1.2623 -0.401507 1086.81 
229 2 161.201 1.54414 2.29763 1088.79 
230 2 161.464 -1.14343 -0.855049 1072.87 
231 2 158.503 1.8524 -0.329893 1088.39 
232 2 157.909 -1.47901 2.33871 1074.36 
233 1 164.309 -1.46378 -0.634956 1074.81 
234 1 164.102 1.48278 2.02806 1100.14 
235 1 166.98 -0.807852 2.2433 1069.66 
236 1 167.206 2.20731 -0.515961 1080.84 
237 2 166.738 1.78313 2.24574 1075.78 
238 2 167.147 -1.71424 -0.229024 1091.69 
239 2 164.126 1.68909 -0.80688 1087.11 
240 2 163.731 -1.31953 2.05269 1094.77 
241 1 169.744 -1.37746 -0.265555 1083.46 
242 1 170.253 2.34405 2.69148 1061.23 
243 1 172.525 -1.99518 2.21109 1067.72 
244 1 172.723 1.49737 -0.450292 1043.56 
245 2 172.744 2.21542 2.30912 1070.79 
246 2 172.27 -1.69234 -1.14374 1057.4 
247 2 169.882 1.52129 -0.739726 1049.14 
248 2 170.316 -0.863936 2.23317 1053.05 
249 1 175.335 -1.28359 -0.376622 1047.81 
250 1 175.59 1.7081 2.36168 1042.16 
251 1 177.791 -1.63706 2.46804 1057.78 
252 1 178.407 2.4234 -0.172569 1051.4 
253 2 178.509 1.6675 2.54775 1057.8 
254 2 177.857 -0.865407 -0.347986 1042.27 
255 2 175.325 2.08984 -0.897098 1061.87 
256 2 175.214 -1.15769 2.43805 1053.33 
257 1 180.595 -0.993669 -0.640665 1033.12 
258 1 181.191 1.51997 2.62915 1023.55 
259 1 184.503 -1.19087 2.33667 1054.43 
260 1 184.468 1.67351 -0.0460299 1046.54 
261 2 184.208 1.35953 2.84712 1036.67 
262 2 184.407 -1.46852 -0.700046 1051.17 
263 2 181.637 1.75486 -0.260765 1047.72 
264 2 181.528 -1.26128 2.91804 1031.95 
265 1 187.096 -1.18119 -0.32364 1063.99 
266 1 187.085 1.21424 2.86015 1068.55 
267 1 189.447 -1.86993 2.37508 1036.07 
268 1 189.682 0.782959 -0.851414 1045.59 
269 2 189.81 1.11618 2.17836 1049.99 
270 2 189.648 -2.12231 -0.383145 1028.9 
271 2 186.982 1.5994 -0.53239 1073.01 
272 2 186.818 -1.87624 1.86066 1030.61 
273 1 192.472 -1.77821 -0.10067 1040.03 
274 1 193.429 1.36774 2.27185 1039.77 
275 1 196.241 -2.02673 2.48189 1019.81 
276 1 195.885 1.16961 -0.507165 1037.1 
277 2 195.957 1.71741 2.05943 1034.85 
278 2 195.72 -1.46686 -0.135581 1026.42 
279 2 192.532 1.13626 -0.322883 1036.82 
280 2 193.182 -1.89474 2.55499 1038.41 
281 1 199.224 40.1017 -0.150754 1023.16 
282 1 198.939 2.23453 2.60906 1027.2 
283 1 201.23 -1.91945 2.66324 1007.56 
284 1 201.902 1.53825 -0.673777 1030.72 
285 2 201.549 1.22776 2.7538 1021.39 
286 2 201.905 -1.37519 -0.889829 1030.74 
287 2 198.317 2.18488 -0.245793 1034.86 
288 2 198.867 40.082 2.62748 1038.74 
289 1 204.699 -1.67372 -1.18275 987.946 
290 1 204.629 0.653381 2.73178 1003.64 
291 1 208.129 -1.95129 2.8571 997.765 
292 1 207.157 2.0663 -0.417622 1006.02 
293 2 207.349 1.32835 2.67127 1011.28 
294 2 207.32 -1.42744 0.725705 989.895 
295 2 204.357 1.48972 -1.04998 1013.12 
296 2 203.978 -1.83025 3.3899 1004.88 
297 1 209.945 -1.07078 -0.391193 1007.24 
298 1 210.32 0.978771 2.63185 1000.9 
299 1 213.129 -1.61972 3.05271 1015.74 
300 1 213.06 1.67024 -0.685883 980.214 
301 2 213.621 0.960323 3.0007 1006.71 
302 2 213.009 -1.36822 -1.01329 984.703 
303 2 209.926 1.62117 -0.165702 1003.39 
304 2 210.734 -1.51168 2.09149 990.48 
305 1 216.016 -1.07329 -1.06644 981.334 
306 1 216.578 0.86857 2.83047 980.504 
307 1 219.219 -1.59413 2.54934 976.85 
308 1 219.175 1.68046 -0.457694 994.55 
309 2 219.355 1.41239 2.89642 996.277 
310 2 218.739 -0.761137 -0.470711 973.271 
311 2 215.686 1.34055 -0.827308 980.449 
312 2 216.147 -1.69293 3.32423 985.507 
313 1 222.147 -1.20734 -0.457347 991.542 
314 1 221.86 1.52183 2.20435 980.85 
315 1 225.033 -1.22464 2.61055 990.724 
316 1 224.874 1.07853 -1.14013 963.19 
317 2 225.093 1.21748 2.18643 944.002 
318 2 224.641 -1.78956 -0.738019 990.43 
319 2 222.246 1.5701 -0.380067 995.843 
320 2 222.07 -1.48338 2.62613 977.899 
321 1 227.316 -1.64112 -0.752725 978.444 
322 1 227.667 0.919671 2.05969 971.914 
323 1 230.792 -1.62478 2.51039 972.627 
324 1 230.653 1.22008 -0.181553 961.543 
325 2 230.617 0.919841 2.54818 996.044 
326 2 230.198 -1.82039 -0.730326 981.155 
327 2 227.756 1.41017 -0.992033 971.5 
328 2 227.788 -1.77688 1.92389 971.09 
329 1 233.691 40.1038 -1.14643 965.112 
330 1 233.794 0.581887 2.06023 963.695 
331 1 235.905 39.5391 1.97269 969.818 
332 1 236.46 1.7119 -0.632503 956.587 
333 2 236.422 1.12245 1.93255 979.816 
334 2 236.2 -1.87113 -0.842537 983.924 
335 2 233.672 0.546538 -0.771484 978.359 
336 2 233.178 39.8576 2.37286 972.092 
337 1 238.993 -1.42205 -0.316381 957.468 
338 1 239.182 1.13477 2.38203 950.667 
339 1 242.474 -1.62046 2.41176 960.601 
340 1 241.97 1.17193 -0.59111 949.648 
341 2 241.933 1.31689 2.59104 959.991 
342 2 242.345 -1.45927 -0.832035 985.667 
343 2 239.461 1.55551 -0.356741 958.454 
344 2 239.273 -1.54678 2.25552 959.617 
345 1 244.865 -1.75461 -0.42099 951.114 
346 1 244.668 1.63827 2.5818 939.467 
347 1 247.697 -1.65116 3.23363 950.864 
348 1 247.701 1.09448 -0.0628107 940.935 
349 2 248.149 1.24986 2.67653 927.354 
350 2 247.363 -1.39167 -0.849663 950.646 
351 2 244.714 1.36507 -0.152743 959.719 
352 2 245.033 -1.33737 2.80504 965.266 
353 1 250.305 -1.79101 -0.538441 930.368 
354 1 250.684 1.26189 2.36787 936.723 
355 1 253.476 -1.674 2.60776 923.975 
356 1 253.249 1.00392 -0.651967 955.408 
357 2 253.167 1.49135 2.25465 933.029 
358 2 253.227 -2.02715 -0.476212 942.104 
359 2 250.631 0.878799 -0.951776 954.671 
360 2 250.499 -1.80413 2.93055 941.878 
361 1 256.179 -1.51675 -1.02116 927.585 
362 1 256.167 1.1674 2.28303 931.317 
363 1 259.134 -2.09319 2.41421 911.895 
364 1 258.65 1.22405 -0.394539 947.176 
365 2 259.192 1.32714 2.44354 928.701 
366 2 259.253 -1.75484 -0.774922 941.819 
367 2 256.027 1.21929 -0.274918 933.33 
368 2 256.297 -1.59276 2.48489 935.291 
369 1 262.176 -1.51927 -0.518666 948.771 
370 1 262.107 1.05812 2.87491 912.178 
371 1 265.007 40.1371 2.28894 955.703 
372 1 264.821 1.46481 -0.387704 928.459 
373 2 264.518 1.19563 2.60694 941.525 
374 2 265.121 -2.12556 -0.534373 913.486 
375 2 262.127 1.54287 -0.411707 927.594 
376 2 262.36 -1.98562 2.57165 908.129 
377 1 267.727 -1.72074 -0.333607 919.976 
378 1 267.366 1.54403 2.09663 914.708 
379 1 270.597 -0.961964 2.48116 903.921 
380 1 271.18 1.96621 0.380407 933.287 
381 2 270.622 1.56323 2.636 921.339 
382 2 270.739 -2.00645 -0.36111 920.021 
383 2 267.832 1.03871 -0.393517 917.943 
384 2 267.727 -1.32445 2.66328 925.619 
385 1 273.371 -1.75153 -0.436305 931.728 
386 1 273.954 1.53875 2.37531 929.167 
387 1 276.448 -1.97581 2.15449 926.179 
388 1 276.137 1.36197 -0.653008 919.618 
389 2 276.459 1.07652 2.16417 932.832 
390 2 276.211 -1.26549 -0.579225 908.965 
391 2 273.427 1.33546 -0.455361 932.663 
392 2 273.408 -1.327 2.30684 913.051 
393 1 279.282 -1.7637 -1.32619 909.487 
394 1 279.464 1.48652 2.09262 917.129 
395 1 282.159 -1.15714 2.15474 910.101 
396 1 282.57 0.926504 -1.36601 914.106 
397 2 282.176 1.66727 1.97897 917.697 
398 2 282.012 -1.6992 -1.23982 929.209 
399 2 279.653 0.923674 -1.29424 913.061 
400 2 279.327 -1.54319 2.32445 887.096 
401 1 -4.25172 4.18305 -0.797126 914.898 
402 1 -4.55182 7.88248 2.83141 898.344 
403 1 -1.58799 4.3734 2.62996 900.864 
404 1 -1.98304 6.8811 -0.83658 914.513 
405 2 -1.53747 7.15074 2.39795 922.217 
406 2 -1.36581 4.49636 -1.47661 900.324 
407 2 -4.47722 6.82392 -0.841519 904.401 
408 2 -4.24753 4.6021 2.58082 912.438 
409 1 1.26389 4.38439 -0.994518 916.802 
410 1 0.707856 7.72677 2.20196 905.557 
411 1 4.09504 4.25972 1.89742 908.389 
412 1 3.95837 7.23517 -0.866789 910.754 
413 2 4.47472 6.79775 2.17566 913.679 
414 2 3.9589 3.9805 -0.956384 908.866 
415 2 1.31011 7.18927 -0.337502 915.363 
416 2 1.03696 4.56787 1.94049 921.906 
417 1 7.67998 4.51244 -0.698486 917.332 
418 1 6.95149 7.09234 1.98126 928.519 
419 1 10.141 4.39314 2.27805 916.686 
420 1 9.93259 7.19097 -0.450794 923.275 
421 2 9.92095 7.21411 2.31397 933.53 
422 2 10.217 4.27749 -0.575716 931.515 
423 2 7.58911 7.40893 -1.25886 918.108 
424 2 7.48604 4.16091 1.89909 930.146 
425 1 13.0561 4.80969 -0.953139 926.411 
426 1 13.3566 7.62798 2.31986 929.163 
427 1 16.0141 4.39835 2.46473 940.447 
428 1 15.5233 7.9635 -0.907531 930.268 
429 2 16.094 8.02222 2.22158 940.487 
430 2 15.3954 4.88595 -0.379025 939.559 
431 2 12.9878 7.61207 -1.1037 942.882 
432 2 13.1961 4.3984 2.64188 925.883 
433 1 18.6563 4.85546 -0.385506 949.516 
434 1 18.6086 7.57507 2.07332 945.136 
435 1 21.7651 4.15397 2.27845 950.426 
436 1 21.9812 7.99084 -0.559618 940.674 
437 2 21.5789 8.23842 2.313 953.066 
438 2 21.2394 4.83546 -0.784214 952.945 
439 2 18.4702 7.82277 -1.05839 944.66 
440 2 18.7158 4.78799 2.56097 957.456 
441 1 24.7964 4.77539 -0.566515 950.272 
442 1 24.4886 7.84436 2.18682 940.103 
443 1 26.9 4.57612 2.42858 946.551 
444 1 27.8161 7.77162 -0.35944 964.923 
445 2 27.0187 7.24096 2.70218 946.96 
446 2 27.5602 4.66941 0.00132034 964.94 
447 2 24.5965 7.66634 -0.28469 968.428 
448 2 24.318 4.63642 2.00573 947.797 
449 1 30.2732 5.2598 -0.0907132 951.616 
450 1 30.6479 8.28866 2.72579 956.166 
451 1 33.6383 5.75772 2.10939 942.047 
452 1 32.8098 8.39958 -0.603354 949.266 
453 2 33.5594 8.73644 2.07781 961.338 
454 2 32.9992 5.05567 -0.475847 956.334 
455 2 30.2825 8.09757 -0.820298 963.085 
456 2 30.6325 5.48125 2.57095 931.296 
457 1 35.9325 5.5415 -0.697446 945.906 
458 1 36.6013 8.13845 2.1012 957.456 
459 1 39.1051 5.34968 2.24629 946.201 
460 1 38.7602 7.77276 -1.25203 950.673 
461 2 39.045 8.37966 2.85534 957.553 
462 2 38.7159 5.12442 -0.514835 946.551 
463 2 36.1135 8.29694 -0.821185 950.521 
464 2 36.0099 5.61958 2.04976 955.658 
465 1 41.5341 4.51576 -0.481093 950.26 
466 1 41.7276 8.27077 2.78473 968.365 
467 1 44.6057 4.61753 1.92777 954.062 
468 1 44.4992 7.8409 -0.43621 962.359 
469 2 44.6208 8.05829 2.40532 961.347 
470 2 44.5886 4.54339 -0.50468 943.82 
471 2 41.6804 7.11818 -0.57797 944.81 
472 2 42.1138 4.98383 2.31211 936.585 
473 1 48.1643 5.10614 -0.369008 939.85 
474 1 47.3682 7.60742 2.5534 963.679 
475 1 50.5307 4.91801 2.81127 965.648 
476 1 50.9566 7.75006 -0.0539043 966.183 
477 2 50.9822 7.77145 2.76351 961.401 
478 2 50.691 4.85079 -0.683896 966.421 
479 2 47.596 7.8371 -0.0285313 944.259 
480 2 47.7354 4.95266 2.65319 964.323 
481 1 53.4256 5.06787 -0.544108 975.424 
482 1 53.9455 7.97458 3.0371 975.904 
483 1 56.2949 5.0599 2.44284 984.01 
484 1 56.2693 8.00866 -0.802317 978.484 
485 2 56.5856 8.04295 2.11577 957.861 
486 2 56.2644 4.89634 -0.616639 972.552 
487 2 53.3676 8.17884 -0.24392 986.722 
488 2 53.2803 5.31402 2.6544 955.064 
489 1 59.4404 5.34273 -0.516258 964.674 
490 1 59.4755 7.90683 2.88799 965.407 
491 1 62.2483 4.72044 2.22618 988.328 
492 1 61.4987 7.95151 -0.913867 991.18 
493 2 62.0029 7.47061 1.90897 983.488 
494 2 62.1032 4.42616 -0.815109 985.95 
495 2 58.9553 8.20986 -1.07686 964.63 
496 2 59.0372 5.05595 2.55217 968.992 
497 1 64.8803 4.60992 -1.02184 998.607 
498 1 64.2597 7.88354 3.22809 978.123 
499 1 67.3325 5.53636 2.43374 1004.37 
500 1 67.4646 8.61383 -0.163945 1010.52 
501 2 67.2076 7.99085 3.17635 983.079 
502 2 67.8104 5.32652 -0.314994 1007.87 
503 2 64.5979 8.26756 -0.858338 984.173 
504 2 64.9397 4.82654 3.10904 979.133 
505 1 70.5535 5.56566 -0.584074 978.559 
506 1 70.6469 8.11015 2.48701 983.491 
507 1 73.7946 5.71697 2.63781 1010.65 
508 1 73.6516 8.75486 -0.262171 1005.44 
509 2 73.5928 8.59165 2.52275 997.342 
510 2 73.8352 5.20065 -0.786514 1014.95 
511 2 70.3248 8.35764 -0.338394 1017.18 
512 2 70.9929 5.71787 2.91753 988.832 
513 1 76.2394 5.00951 0.0407538 1036.12 
514 1 76.4141 8.32244 2.74788 1019.6 
515 1 79.2274 5.31022 2.45899 987.269 
516 1 79.316 8.77297 -0.196411 1003.39 
517 2 79.1001 7.8379 3.05067 1013.64 
518 2 79.0881 5.00752 -0.00944836 1014.57 
519 2 76.5088 8.88304 -0.398541 1002.19 
520 2 76.285 5.28025 2.78162 1006.04 
521 1 81.791 5.00936 -0.187812 1008.45 
522 1 81.9846 8.14167 2.62837 1017.12 
523 1 85.0892 5.02851 2.86172 1026.66 
524 1 85.2222 8.38357 -0.0458545 1020.22 
525 2 85.0667 8.74998 2.88448 1024.23 
526 2 85.0699 5.14182 -0.671416 1010.11 
527 2 82.4067 8.60056 0.0586867 1020.62 
528 2 82.4171 5.46813 2.40627 1012.75 
529 1 87.76 5.24077 -0.963949 998.446 
530 1 87.7728 8.61477 3.0795 1023.39 
531 1 90.9145 5.38846 3.25554 1015.71 
532 1 90.9394 7.69961 -1.06238 1000.14 
533 2 91.0309 8.30469 3.21309 1027.24 
534 2 90.9763 5.05496 -0.578413 994.179 
535 2 87.9379 8.09862 -0.205077 1000.49 
536 2 88.3323 5.09485 2.95179 1028.02 
537 1 93.914 5.21609 -0.176657 1041.89 
538 1 93.6065 8.31245 2.95473 1032.92 
539 1 96.4585 5.09721 2.87838 1018.05 
540 1 96.5081 7.81064 0.0033349 1046.19 
541 2 96.203 7.78101 2.76619 1027.25 
542 2 96.8459 5.24561 0.202819 1032.28 
543 2 93.5176 8.37103 -0.391539 1017.78 
544 2 93.5259 5.01657 3.01359 1013.26 
545 1 99.4094 5.40148 0.110762 1048.49 
546 1 99.9368 8.43454 2.79973 1018.64 
547 1 103.247 5.25054 3.49889 1041.24 
548 1 102.528 8.01592 0.116528 1056.77 
549 2 102.581 7.70454 3.56187 1030.74 
550 2 102.145 5.55249 -0.746923 1038.84 
551 2 99.6717 8.26705 0.0387295 1009.91 
552 2 99.7594 5.22681 3.27683 1040.53 
553 1 105.075 5.36721 -0.250057 1035.42 
554 1 105.349 8.26969 3.18348 1064.03 
555 1 108.434 4.80352 3.14615 1053.1 
556 1 108.245 8.16821 0.161438 1040.21 
557 2 108.882 7.89578 2.55863 1039.6 
558 2 108.103 4.7243 0.0693267 1041.78 
559 2 105.551 8.14183 0.425981 1042.43 
560 2 105.472 5.43205 3.09402 1050.5 
561 1 110.657 4.87082 0.0180772 1049.57 
562 1 112.079 7.6149 3.32443 1057.37 
563 1 114.259 4.70218 2.6869 1037.22 
564 1 114.223 7.05857 -0.207969 1048.46 
565 2 114.39 7.47111 2.66603 1049.23 
566 2 114.263 4.81304 0.0876118 1070.1 
567 2 111.761 7.99582 -0.594978 1037.29 
568 2 111.569 4.4058 2.80493 1045.84 
569 1 116.692 4.35312 -0.358092 1047.69 
570 1 117.1 7.20003 2.44957 1070.6 
571 1 120.41 4.32418 2.35297 1058.76 
572 1 120.31 7.70343 -0.521674 1061.39 
573 2 120.262 7.37454 2.62994 1062.17 
574 2 120.149 4.68839 -0.623265 1064.07 
575 2 117.364 7.40437 -0.166211 1069.7 
576 2 117.5 4.63114 3.26639 1060.46 
577 1 123.39 4.59071 -0.696846 1070.02 
578 1 122.78 7.60675 2.62334 1074.83 
579 1 126.372 5.20728 2.26862 1072.89 
580 1 125.304 7.58198 -0.696266 1070.7 
581 2 126.307 7.97884 2.08193 1078.19 
582 2 126.047 5.30862 -0.483912 1077.11 
583 2 122.735 8.29766 -0.546153 1080.29 
584 2 123.291 4.6926 2.15771 1061.06 
585 1 129.442 4.81024 -0.888203 1056.4 
586 1 128.868 7.55895 2.1951 1068.82 
587 1 132.117 4.38057 1.50097 1084.11 
588 1 132.1 8.20635 -0.497599 1095.85 
589 2 132.359 7.0712 2.3531 1083.84 
590 2 132.133 4.56569 -1.088 1101.99 
591 2 129.651 7.79783 -0.340462 1083.39 
592 2 129.359 4.71428 1.72488 1078.46 
593 1 135.171 4.40346 -0.704588 1095.61 
594 1 135.191 7.82707 2.33291 1105.36 
595 1 137.949 4.24237 2.12965 1109.61 
596 1 138.107 7.80212 -0.564088 1109.46 
597 2 138.224 7.24603 2.07926 1116.6 
598 2 137.893 5.00971 -1.05132 1101.02 
599 2 134.842 8.21455 -0.294059 1081.49 
600 2 135.025 4.45613 1.85622 1095.34 
601 1 140.447 4.99588 -0.391565 1103.89 
602 1 141.007 8.16751 2.16239 1091.04 
603 1 143.678 4.77577 2.54941 1125.71 
604 1 143.422 7.85816 -1.04888 1111.35 
605 2 143.531 7.17195 2.69625 1118.3 
606 2 143.795 4.78889 -1.04457 1088.99 
607 2 140.832 7.91667 -0.583061 1098.65 
608 2 140.662 4.58032 2.38754 1130.05 
609 1 147.482 1.81823 14.6312 1108.98 
610 1 146.568 4.69135 -0.553361 1082.59 
611 1 149.859 5.02175 2.44488 1109.25 
612 1 149.112 7.5912 -0.0964091 1124.75 
613 2 149.425 7.76987 2.33711 1096.51 
614 2 149.662 4.91743 -0.235011 1127.5 
615 2 146.355 7.75132 -0.918815 1114.8 
616 2 146.29 5.07286 2.8689 1115.05 
617 1 152.442 4.65065 -0.428901 1092.43 
618 1 152.816 7.42782 2.50896 1099.47 
619 1 156.095 4.82716 3.0328 1086.73 
620 1 155.067 7.84518 -0.0764414 1080.51 
621 2 155.113 7.88668 2.43684 1089.2 
622 2 155.596 4.97498 -0.479516 1086.72 
623 2 152.277 7.776 -0.286738 1094.63 
624 2 152.388 4.58913 2.10331 1096.81 
625 1 158.429 5.23465 -0.362684 1081.64 
626 1 158.753 7.50457 2.71985 1091.22 
627 1 161.628 4.3301 2.2939 1076.68 
628 1 161.191 7.89916 -0.448438 1063.34 
629 2 161.149 7.45559 1.92299 1077.39 
630 2 160.601 5.10804 -0.605711 1060.56 
631 2 158.171 7.88774 -0.158213 1073.2 
632 2 158.706 4.6737 2.52071 1071 
633 1 163.726 4.88649 -0.956405 1092.01 
634 1 163.712 8.201 1.67176 1074.55 
635 1 167.325 4.71639 2.36488 1076.51 
636 1 167.2 7.74313 -0.543202 1067.15 
637 2 167.7 6.97364 2.47573 1069.68 
638 2 167.685 4.6903 -0.577812 1078.73 
639 2 163.948 7.70159 -0.686512 1098.59 
640 2 164.335 4.6461 1.83564 1082.89 
641 1 170.344 4.6684 -0.392763 1052.91 
642 1 170.03 7.81769 2.35048 1073.01 
643 1 173.279 5.22825 2.68074 1087.32 
644 1 172.653 7.55941 -0.66976 1071.62 
645 2 173.053 7.85206 2.627 1079.99 
646 2 172.799 5.08068 -0.309818 1059.23 
647 2 170.009 7.74265 -0.521295 1075.35 
648 2 170.574 4.84939 2.31265 1068.86 
649 1 175.412 4.54482 -0.447657 1036.51 
650 1 175.975 7.9948 2.83108 1053.52 
651 1 178.82 4.63997 3.01269 1062.17 
652 1 179.077 7.89196 -0.413254 1069.83 
653 2 178.363 8.07755 2.75467 1065.52 
654 2 178.686 5.0246 -0.462342 1066.68 
655 2 175.837 8.03744 -0.942104 1073.93 
656 2 175.927 4.80396 2.65166 1052.84 
657 1 181.781 4.78844 -0.395579 1067.06 
658 1 181.444 7.60406 2.66461 1048.91 
659 1 184.547 4.38311 2.63695 1044.31 
660 1 184.491 6.88351 -0.0396951 1048.2 
661 2 184.251 7.35352 2.67142 1024.3 
662 2 184.726 4.08016 0.00381534 1049.84 
663 2 181.705 7.42106 -0.367946 1056.4 
664 2 181.299 4.71467 2.35585 1035.05 
665 1 187.203 4.56771 -0.338397 1045.32 
666 1 187.715 7.29609 2.41148 1019.31 
667 1 190.312 4.0598 2.49603 1039.36 
668 1 190.115 7.37143 -0.626888 1035.96 
669 2 190.292 7.47433 2.57392 1038.23 
670 2 190.176 4.70479 -0.0918913 1044.92 
671 2 187.11 7.29394 -0.633603 1039.69 
672 2 187.487 4.57376 2.38293 1021.36 
673 1 192.431 4.59429 -0.804769 1040.45 
674 1 193.426 6.93769 1.73247 1039.89 
675 1 195.683 4.73736 2.39433 1033.74 
676 1 195.888 6.88301 -0.994345 1019.05 
677 2 195.881 7.38925 2.86797 1034.56 
678 2 195.236 4.43498 -0.915763 1025.09 
679 2 193.33 7.30153 -1.17985 1017.15 
680 2 192.898 4.55311 2.21101 1044.25 
681 1 198.866 4.79987 -0.269589 1031.4 
682 1 198.5 7.53667 2.65373 1014.32 
683 1 201.733 4.18432 2.22609 1021.97 
684 1 201.494 7.88028 -0.794144 1046.91 
685 2 201.281 7.3616 1.91556 1020.44 
686 2 201.466 4.52667 -0.759412 1023.23 
687 2 198.613 7.53378 -1.08437 1016.67 
688 2 198.949 4.64276 2.46215 1034.59 
689 1 204.398 4.28305 -0.372664 1020.43 
690 1 203.816 7.64838 2.4373 1033.76 
691 1 207.819 4.60931 2.32448 998.094 
692 1 206.842 7.75391 -0.685936 1021.76 
693 2 207.406 7.99286 2.55372 1024.68 
694 2 206.638 4.86857 0.00786258 1023.97 
695 2 204.23 7.68938 -0.570607 1011.72 
696 2 205.023 4.12334 2.60486 1021.54 
697 1 210.114 4.3372 -0.129647 990.855 
698 1 210.48 7.58069 2.59971 986.231 
699 1 212.895 4.56641 2.757 982.099 
700 1 212.931 7.2958 -0.488713 986.506 
701 2 212.982 7.60061 2.49177 985.55 
702 2 212.829 4.11031 -0.548051 998.427 
703 2 210.324 7.00654 -0.492669 1007.3 
704 2 210.341 4.6039 2.55745 1010.41 
705 1 215.822 4.68616 -0.639892 1011.99 
706 1 216.44 7.16554 2.29272 1011.28 
707 1 219.044 4.3062 2.83203 1004.06 
708 1 219.044 7.2582 -0.500174 998.99 
709 2 219.72 7.29426 2.75619 1003.03 
710 2 218.672 4.12931 -0.978939 1017.7 
711 2 215.655 7.542 -0.491378 1016.99 
712 2 216.351 4.67436 2.37545 1024.16 
713 1 222.234 4.14986 -0.477715 990.004 
714 1 222.396 6.98373 2.11734 994.924 
715 1 225.438 3.91111 1.41082 998.861 
716 1 224.794 7.3932 -0.670026 964.645 
717 2 225.247 7.32353 2.18981 965.892 
718 2 225.111 4.09711 -1.04135 989.342 
719 2 222.102 7.12215 -0.676968 969.018 
720 2 221.819 4.20675 2.08088 969.477 
721 1 228.136 4.62782 -0.221909 956.28 
722 1 227.611 7.53129 2.63203 972.988 
723 1 230.614 4.2903 2.34082 948.912 
724 1 230.397 7.74448 -1.10867 975.431 
725 2 230.106 6.88249 2.77177 978.983 
726 2 230.493 4.04 -0.509307 966.684 
727 2 227.731 7.11844 -1.06918 970.663 
728 2 227.833 3.98743 2.2604 974.845 
729 1 233.708 4.93801 -0.374945 981.702 
730 1 233.291 7.83219 2.68666 999.022 