ITEM: TIMESTEP
1500000
ITEM: NUMBER OF ATOMS
8400
ITEM: BOX BOUNDS pp pp pp
-5.9099547646241319e+00 2.8359995476463484e+02
-2.1446273254920634e+00 4.0174627325491812e+01
-1.7757301867509554e+00 1.6325730186751606e+01
ITEM: ATOMS id type x y z f_TolTpA 
1 1 -4.72985 -1.42644 -0.289505 925.07 
2 1 -4.3079 1.63313 2.3349 911.008 
3 1 -1.1655 -1.43201 2.82657 882.751 
4 1 -0.750309 1.18431 -0.293016 907.996 
5 2 -1.64777 1.35261 2.14473 916.706 
6 2 -1.12727 -1.36326 -0.749524 940.9 
7 2 -4.58111 1.33238 -0.791892 908.25 
8 2 -4.53713 -1.49236 2.69233 937.057 
9 1 1.25377 -1.19934 -0.728754 925.246 
10 1 1.82704 1.62 2.58306 919.089 
11 1 4.51164 -1.92455 2.25928 930.017 
12 1 4.27649 1.16029 -0.673758 920.835 
13 2 4.24911 1.71247 2.11637 903.049 
14 2 4.95522 -1.8051 -0.652631 933.466 
15 2 1.81351 1.48688 -0.492035 922.993 
16 2 1.89624 -1.19218 2.14535 919.435 
17 1 7.5085 -1.25585 -0.583117 920.415 
18 1 7.45629 1.3541 2.25197 904.813 
19 1 10.8163 -1.65045 2.32544 926.914 
20 1 10.2579 1.12043 -0.194826 909.325 
21 2 10.4028 1.5287 2.55348 914.138 
22 2 10.7066 -1.47485 -0.564468 927.111 
23 2 7.41736 1.53594 -0.902897 907.135 
24 2 7.4201 -1.64427 2.39681 923.689 
25 1 13.7782 -1.36212 -0.93363 948.566 
26 1 13.2205 1.51754 2.02509 914.984 
27 1 15.9505 40.1335 2.9014 958.669 
28 1 16.2993 1.12164 -0.464557 926.559 
29 2 15.9948 1.52187 2.42758 932.057 
30 2 16.5339 -1.50707 -1.0198 946.914 
31 2 12.9755 1.5195 -0.973589 928.727 
32 2 13.5368 -1.33467 2.45315 925.287 
33 1 19.2493 -1.97866 -0.595438 932.832 
34 1 18.9799 1.19913 2.70802 925.824 
35 1 21.9522 -1.74277 2.59705 950.955 
36 1 21.5768 2.05626 -0.95943 920.821 
37 2 21.8286 1.0181 2.94818 930.841 
38 2 22.0355 -1.93777 -0.840693 920.864 
39 2 18.8882 1.77132 -0.363436 932.691 
40 2 19.0159 -2.04712 2.03164 945.334 
41 1 24.4926 -2.12367 -0.170118 947.767 
42 1 25.2098 1.66893 2.02633 966.935 
43 1 27.653 40.0095 2.75112 938.349 
44 1 27.4124 1.36712 -0.452933 950.86 
45 2 27.7386 1.81467 2.09247 987.469 
46 2 27.0798 -1.77471 -0.595926 955.02 
47 2 24.7678 1.29748 -0.516355 934.293 
48 2 24.5758 -2.04665 2.63546 957.494 
49 1 30.3542 -1.91531 -0.742861 968.912 
50 1 30.5352 1.74552 2.83272 945.672 
51 1 33.0773 39.9966 2.73054 974.723 
52 1 32.9214 0.684224 -0.652138 940.174 
53 2 33.0967 1.49691 2.32504 976.366 
54 2 33.0516 -2.03297 -0.403454 979.075 
55 2 30.4459 1.25242 -0.87563 935.605 
56 2 30.1202 -1.86874 3.2336 955.752 
57 1 35.7348 -1.43536 -0.516347 964.519 
58 1 35.5953 1.04682 2.04424 959.888 
59 1 38.6763 -1.2802 2.33085 978 
60 1 39.0345 1.34775 -0.876112 960.836 
61 2 38.5404 1.60825 1.68953 963.857 
62 2 39.1417 -1.88845 -0.825467 958.757 
63 2 35.9467 0.946249 -0.536739 960.294 
64 2 35.6402 -1.70155 2.09223 977.981 
65 1 41.7026 -2.05812 -0.863171 968.914 
66 1 42.0486 1.1173 2.42087 979.586 
67 1 44.3985 40.1426 2.35288 965.242 
68 1 44.3045 1.65733 -0.395833 972.139 
69 2 44.8089 1.14417 2.10657 995.744 
70 2 45.0239 40.1523 -0.700835 962.103 
71 2 41.7938 1.49158 -0.450161 986.61 
72 2 41.4656 -1.756 2.16299 982.265 
73 1 47.4953 -1.21168 -0.695506 953.091 
74 1 47.3299 1.60108 2.19387 977.136 
75 1 49.969 -1.73627 2.38592 971.888 
76 1 50.3223 2.16803 -0.798382 970.337 
77 2 50.0596 1.60929 2.46187 979.811 
78 2 50.4733 -1.94645 -0.114215 967.126 
79 2 47.4527 1.42169 -0.583616 951.146 
80 2 47.2353 39.9456 2.89937 975.13 
81 1 53.21 -1.99246 -0.138942 957.078 
82 1 53.0955 1.46878 2.57193 965.646 
83 1 56.1936 40.174 3.32819 983.868 
84 1 56.0789 1.28391 -0.957856 987.57 
85 2 55.6652 1.42684 2.26932 986.615 
86 2 56.2398 -1.6589 -0.556106 981.754 
87 2 52.7547 2.12752 0.00730574 998.246 
88 2 53.1786 -2.09785 2.83584 971.247 
89 1 58.9425 -1.15708 -0.873406 990.158 
90 1 58.6251 1.63962 2.77687 985.353 
91 1 61.3403 -1.85278 2.40419 974.865 
92 1 61.7465 1.34655 -0.202138 990.517 
93 2 61.9512 1.89928 2.67673 998.854 
94 2 61.7328 -1.52122 -0.423347 981.521 
95 2 58.8742 1.59819 -0.764422 986.196 
96 2 58.5485 -1.17833 2.64247 978.02 
97 1 64.5512 -1.18054 -0.34389 997.815 
98 1 64.9932 0.780765 2.9642 993.458 
99 1 67.8385 -1.89906 2.85312 983.917 
100 1 67.5819 1.0902 -0.545297 959.876 
101 2 67.4291 1.40395 2.32031 995.577 
102 2 67.7717 -1.69452 -0.125032 991.871 
103 2 64.4517 1.4152 -0.353639 995.991 
104 2 64.2741 -1.74105 2.95898 993.374 
105 1 70.8335 -2.06796 -0.511521 978.136 
106 1 70.5609 1.48994 2.37615 976.27 
107 1 73.9703 -1.36606 2.27996 996.222 
108 1 73.4973 1.22114 -0.582286 995.549 
109 2 74.1576 1.77029 2.25775 1020.67 
110 2 73.7467 -1.93098 -0.3045 1012.33 
111 2 71.0143 1.35029 -0.332434 983.874 
112 2 70.9959 -1.77384 2.24415 980.74 
113 1 76.4422 -1.14139 -0.973115 999.614 
114 1 76.6434 1.36049 2.53983 1012.84 
115 1 79.5313 -1.91774 2.85585 993.453 
116 1 79.0855 0.887085 -0.171992 998.166 
117 2 79.9868 0.925504 2.2892 999.159 
118 2 78.71 -1.55417 -0.507016 1008.17 
119 2 76.3868 1.46903 -0.63716 1023.78 
120 2 76.6286 -1.70761 2.35518 1002.13 
121 1 81.9193 -1.49588 -0.3186 1014.83 
122 1 82.5162 1.19499 2.54453 1018.5 
123 1 85.0066 -1.85586 2.35059 1013.33 
124 1 85.4315 1.33623 -1.02485 1012.13 
125 2 85.7922 1.35155 2.40639 1024.04 
126 2 84.5674 -1.60323 -0.205386 1009.7 
127 2 82.5728 1.30621 -0.231749 1016.51 
128 2 82.4251 -1.95013 3.0395 1008.86 
129 1 87.92 -2.05134 -0.467367 1024.53 
130 1 88.2236 1.0608 2.19547 1020.23 
131 1 91.0838 -1.58553 1.94372 1013.74 
132 1 91.1344 1.77828 -0.0273375 1020.75 
133 2 90.7186 1.13198 2.56615 1022.72 
134 2 91.1011 -1.6429 -0.417274 1018.44 
135 2 88.5332 1.71523 -0.654221 1006.86 
136 2 87.5935 -1.89165 2.11237 1000.41 
137 1 94.071 -2.03473 -0.167427 1005.41 
138 1 93.8378 1.66026 2.71801 1003.33 
139 1 96.8196 -1.20613 3.32605 1030.34 
140 1 97.0167 1.44302 -0.231926 1011.42 
141 2 96.6412 1.6675 2.7416 1013.1 
142 2 96.7677 -1.30299 -0.520234 1031.48 
143 2 93.6052 1.66436 -0.942901 1021.59 
144 2 93.6639 -1.52517 2.81532 1015.13 
145 1 99.786 -2.05806 0.230552 1047.32 
146 1 99.5326 1.98628 2.5154 1045.15 
147 1 102.38 -1.36316 2.41284 1032.41 
148 1 102.574 1.46893 -0.340754 1029.57 
149 2 102.875 1.46859 2.49189 1039.65 
150 2 102.296 -1.47375 -0.606165 1026.05 
151 2 99.6231 1.95883 -0.180384 1041.78 
152 2 99.5577 -0.868643 2.51333 1033.35 
153 1 105.059 -1.48379 -0.158428 1057.13 
154 1 105.661 1.74417 3.1621 1026.97 
155 1 108.107 -1.41823 2.39622 1058.53 
156 1 108.054 1.57212 -0.455616 1034.07 
157 2 108.521 1.50297 3.12747 1033.73 
158 2 107.674 -1.61886 -0.146244 1056.24 
159 2 105.555 1.18026 -0.546259 1027.97 
160 2 105.505 -1.37857 2.98568 1038.62 
161 1 111.285 -1.73331 -0.644725 1044.95 
162 1 111.132 1.5962 2.85335 1032.63 
163 1 113.725 -2.00758 2.77494 1055 
164 1 114.012 1.37329 -0.0784192 1045.98 
165 2 113.803 1.15375 2.53153 1051.31 
166 2 114.317 -1.48847 -0.0683251 1060.73 
167 2 110.751 1.46429 -0.464368 1058.8 
168 2 110.824 -1.26186 2.15585 1021.25 
169 1 116.826 -1.74284 -0.0692391 1043.59 
170 1 116.368 0.874416 3.12933 1036.38 
171 1 119.735 -2.09459 2.82679 1069.62 
172 1 119.636 0.705027 -0.211671 1034.5 
173 2 119.678 0.967964 2.98468 1050.89 
174 2 120.071 -1.94516 0.187715 1046.69 
175 2 117.166 0.939806 -0.0354702 1059.53 
176 2 116.001 -1.68749 2.76226 1033.98 
177 1 123.287 -1.28844 -0.185465 1036.12 
178 1 122.585 0.790755 2.03417 1061.82 
179 1 126.029 -2.00252 2.93968 1058.18 
180 1 126.521 1.6969 -0.134894 1056.32 
181 2 126.342 1.95163 2.83782 1065.98 
182 2 126.11 -2.08057 -0.110466 1037.89 
183 2 123.423 1.25243 -0.232198 1053.77 
184 2 123.249 -1.56183 2.79217 1053.93 
185 1 128.886 -1.58547 -0.33114 1056.78 
186 1 128.711 1.4584 2.2678 1054.39 
187 1 131.74 -1.50885 2.81953 1058.99 
188 1 131.513 1.3196 -0.347439 1082.62 
189 2 131.414 1.66109 2.41772 1084.86 
190 2 131.525 -1.29672 -0.218035 1057.29 
191 2 128.917 1.69502 -0.706606 1058.52 
192 2 128.345 -1.69802 3.03328 1073.93 
193 1 134.659 -1.63643 -0.661349 1079.05 
194 1 134.619 1.25187 2.10128 1076.65 
195 1 137.975 -1.37508 3.1042 1099.42 
196 1 137.814 1.48886 -0.230193 1085.76 
197 2 137.742 1.54924 2.73762 1087.64 
198 2 137.7 -0.954476 -0.403103 1097.72 
199 2 134.152 1.36277 -0.634977 1087.63 
200 2 134.291 -1.57931 2.20591 1069.23 
201 1 140.706 -1.6752 0.0713307 1074.1 
202 1 140.395 1.34607 2.58842 1112.77 
203 1 143.668 -1.39918 2.54219 1093.4 
204 1 143.685 1.30146 -0.0189079 1104.92 
205 2 144.027 1.18776 2.53386 1093.84 
206 2 143.778 -1.47799 -0.135766 1074.12 
207 2 140.619 1.67641 -0.283453 1088.44 
208 2 140.561 -1.22182 2.60509 1120.18 
209 1 146.67 -1.38761 -0.162671 1077.24 
210 1 146.872 1.72531 2.95966 1102.12 
211 1 149.463 -1.16359 2.49941 1059.24 
212 1 149.558 1.37972 -0.350927 1086.12 
213 2 149.583 1.51102 2.78756 1084.59 
214 2 149.977 -1.14804 0.0591869 1095.63 
215 2 146.554 1.59047 0.13327 1093.24 
216 2 146.417 -1.28149 3.02944 1096.76 
217 1 152.582 -1.6656 -0.659383 1053.33 
218 1 152.269 1.49812 2.46888 1077.79 
219 1 156.016 -1.25589 1.9006 1061.75 
220 1 155.469 2.3871 -0.548081 1072.67 
221 2 155.767 2.0211 3.00841 1050.46 
222 2 155.951 -0.958822 -0.489057 1061.73 
223 2 152.218 1.98713 -0.152717 1105.43 
224 2 152.427 -1.66613 2.52834 1063.95 
225 1 158.99 -1.20404 -1.06002 1054.84 
226 1 158.321 2.28002 2.47539 1064.66 
227 1 161.461 -1.29245 2.3794 1040.22 
228 1 161.079 1.52585 -0.283867 1076.72 
229 2 161.715 1.69331 2.3148 1079.27 
230 2 161.294 -1.20234 -0.2429 1065.33 
231 2 158.235 2.68876 -0.509084 1084.78 
232 2 158.826 -0.565229 1.80671 1057.94 
233 1 164.081 -0.988893 -0.601126 1067.37 
234 1 164.13 1.68523 2.6378 1063.53 
235 1 167.077 -1.15989 2.51908 1054.18 
236 1 167.078 1.86136 -0.805862 1069.01 
237 2 166.959 1.96537 2.68674 1074.33 
238 2 167.163 -0.92077 -0.915816 1062.25 
239 2 164.36 2.07481 -1.00518 1052.96 
240 2 164.1 -1.17644 2.76056 1073.88 
241 1 169.656 -0.727217 -0.791996 1063.1 
242 1 169.542 1.8926 2.3673 1080.85 
243 1 172.847 -1.27553 2.39448 1058.59 
244 1 172.393 1.72288 -0.317473 1068.1 
245 2 172.456 1.44098 2.51074 1062.99 
246 2 172.54 -0.829946 -0.832226 1064.79 
247 2 169.806 2.30434 -0.533482 1067.1 
248 2 169.766 -1.00439 2.505 1044.12 
249 1 175.547 -0.873798 -0.478406 1072.39 
250 1 175.478 1.94491 2.36338 1037.11 
251 1 178.077 -1.30628 2.23663 1025.78 
252 1 178.892 1.90523 -0.346273 1034.89 
253 2 178.156 2.21342 1.96839 1070.66 
254 2 179.347 -0.857813 -0.471988 1049.03 
255 2 175.521 1.63149 -0.768235 1024.25 
256 2 175.447 -0.703376 2.09735 1061.01 
257 1 181.879 -0.431297 -0.762502 1039.26 
258 1 182.242 1.79807 2.76755 1069.85 
259 1 184.485 -1.24488 2.11047 1045.54 
260 1 184.759 1.80957 -0.415406 1058.55 
261 2 184.628 2.2724 2.57226 1038.74 
262 2 184.59 -1.21624 -0.390531 1029.16 
263 2 181.787 2.53155 -0.43326 1075.06 
264 2 181.936 -1.0198 2.79131 1046.41 
265 1 188.033 -1.76765 -0.648484 1038.85 
266 1 187.855 1.32295 1.99632 1030.24 
267 1 190.74 -1.53474 3.01048 1025.89 
268 1 190.607 2.11335 -0.637922 1027.24 
269 2 190.534 1.48238 2.94371 1030.13 
270 2 190.425 -1.4298 0.0361408 1021.54 
271 2 187.54 1.50259 -0.527239 1051.14 
272 2 187.208 -1.46835 2.74511 1047.67 
273 1 192.978 -1.20913 0.053972 1005.68 
274 1 193.282 1.9018 2.32614 1024.49 
275 1 195.911 -1.39083 2.51566 1011.45 
276 1 195.68 1.72401 -0.715774 1028.33 
277 2 195.833 1.66788 3.18035 1017.01 
278 2 195.424 -0.854138 -0.660782 1006.57 
279 2 192.996 1.62369 -0.319978 1026.87 
280 2 193.24 -1.5108 2.79524 1027.86 
281 1 198.725 -1.22312 -0.387071 993.08 
282 1 198.547 1.52228 2.68538 1031.31 
283 1 201.744 -0.569309 3.08548 1027.78 
284 1 201.513 1.84383 -0.395196 1028.57 
285 2 201.62 1.78758 1.99943 999.878 
286 2 201.482 -1.26167 0.0905935 1013.75 
287 2 198.646 1.76556 -0.248861 1018.07 
288 2 198.804 -1.16885 3.15794 1029.3 
289 1 204.49 -1.62312 -0.265979 1027.18 
290 1 204.14 1.88721 2.65189 1011.12 
291 1 207.322 -1.49347 2.29025 1016.09 
292 1 207.621 2.00913 -0.230756 1007.33 
293 2 207.952 1.88123 2.51222 1015.08 
294 2 207.572 -1.35382 -0.248509 1028.01 
295 2 204.869 1.64933 -0.370551 1005.46 
296 2 204.456 -1.91032 2.36262 1005.9 
297 1 210.211 -1.40828 -0.263138 989.693 
298 1 210.695 2.19838 1.97414 996.042 
299 1 213.102 -0.974084 2.53147 975.247 
300 1 213.895 1.44377 -0.499199 997.451 
301 2 213.468 1.52278 2.25644 1005.35 
302 2 213.295 -1.2755 -0.287034 973.115 
303 2 210.177 2.05376 -0.843005 996.954 
304 2 210.383 -0.89658 2.73425 1033.27 
305 1 216.542 -1.52699 -0.650423 975.52 
306 1 216.43 1.88039 2.86394 1007.54 
307 1 219.324 -0.596623 3.11381 995.275 
308 1 219.244 1.35387 -0.557424 997.834 
309 2 219.217 2.2095 2.6837 1006.12 
310 2 219.233 -1.32226 0.381271 1004.11 
311 2 216.459 1.56388 -0.242209 980.372 
312 2 216.542 -1.11958 2.92138 991.936 
313 1 222.58 -1.55316 0.396855 979.047 
314 1 222.418 2.36961 2.43718 1007.06 
315 1 225.698 -1.30581 2.59422 968.188 
316 1 225.222 1.44143 -1.21509 996.158 
317 2 225.201 1.53271 2.25658 976.446 
318 2 225.17 -1.60713 -0.051569 961.909 
319 2 222.473 2.20089 -0.506696 1006.8 
320 2 221.845 -0.936282 2.52753 986.06 
321 1 227.807 -1.83853 -0.869376 974.087 
322 1 227.604 1.85175 1.78511 980.816 
323 1 230.93 -1.84092 1.54394 985.284 
324 1 230.633 1.13839 -0.676446 986.752 
325 2 230.795 1.5619 1.71098 978.942 
326 2 230.882 -1.66007 -1.04204 977.573 
327 2 227.75 1.20465 -0.94611 973.696 
328 2 228.209 -2.09584 2.16194 969.9 
329 1 234.187 -1.05096 -1.26433 969.999 
330 1 233.823 2.29142 1.84501 974.11 
331 1 235.982 -1.49504 2.71806 949.955 
332 1 236.669 2.00623 -0.501997 977.602 
333 2 236.479 1.96082 2.06448 962.822 
334 2 236.801 -1.82339 -0.99421 982.369 
335 2 233.776 2.04622 -0.841268 974.599 
336 2 233.791 -1.54161 1.79234 961.761 
337 1 239.248 -1.30844 -1.07469 971.725 
338 1 239.625 1.73087 2.17335 949.006 
339 1 242.142 -1.06277 2.75914 967.962 
340 1 242.078 1.68758 -0.710729 971.688 
341 2 242.447 1.97259 2.53865 952.453 
342 2 242.449 -1.36618 -0.137501 972.491 
343 2 239.618 2.05102 -0.837953 970.383 
344 2 239.236 -0.68957 2.52807 958.008 
345 1 245.264 -1.13036 -0.169641 952.149 
346 1 245.17 2.14924 2.8255 973.963 
347 1 247.862 -1.62099 2.17805 946.904 
348 1 247.43 1.46602 -0.083235 974.173 
349 2 247.845 2.05507 2.27246 982.503 
350 2 247.839 -1.63395 -0.752575 967.551 
351 2 244.879 1.58102 -0.3356 940.965 
352 2 245.387 -1.14599 2.22203 956.888 
353 1 250.506 -1.48618 -0.803681 940.869 
354 1 250.598 2.03768 2.02051 952.664 
355 1 254.099 -1.01663 1.57799 952.186 
356 1 253.893 1.67039 -0.481287 963.804 
357 2 253.749 2.00278 2.79661 965.352 
358 2 253.811 -1.19955 -0.81812 929.173 
359 2 250.355 1.47719 -1.03332 957.483 
360 2 250.985 -0.842452 1.95397 971.962 
361 1 256.566 -0.993593 -0.978247 946.994 
362 1 256.456 2.00073 2.60584 944.591 
363 1 259.587 -1.36415 2.05567 938.681 
364 1 259.221 1.5329 -0.0324797 943.934 
365 2 259.684 2.57938 2.50724 934.402 
366 2 259.084 -1.46029 -0.751742 952.062 
367 2 256.176 1.81498 -0.481964 961.534 
368 2 256.574 -1.08525 1.60475 931.684 
369 1 262.259 -1.37165 -1.07358 939.893 
370 1 262.306 2.18253 2.55752 938.13 
371 1 264.846 -1.13353 1.81835 945.768 
372 1 265.352 1.66007 -0.780752 972.565 
373 2 265.074 1.9524 2.64178 950.937 
374 2 264.918 -1.19272 -0.736544 944.249 
375 2 261.798 1.83993 -0.505299 924.827 
376 2 262.177 -1.61381 1.74347 959.561 
377 1 267.934 -1.57753 -1.26601 937.233 
378 1 268.211 1.78897 1.90579 932.624 
379 1 270.941 -1.01303 2.1905 925.376 
380 1 271.2 1.96809 -0.710233 919.217 
381 2 270.749 1.9335 2.12645 927.473 
382 2 271.221 -1.01129 -0.726885 936.587 
383 2 267.808 1.60058 -1.05961 915.462 
384 2 268.209 -1.28557 2.12805 944.37 
385 1 273.662 -1.57096 -0.764278 917.566 
386 1 273.631 1.7895 2.44267 927.416 
387 1 277.011 -1.55006 1.99281 925.883 
388 1 276.627 2.13931 -0.448932 917.151 
389 2 276.887 2.24359 2.89788 925.178 
390 2 276.852 -1.1164 -0.581308 905.937 
391 2 273.698 2.14307 -0.374995 937.32 
392 2 273.532 -1.5213 2.11735 930.291 
393 1 279.378 -1.35437 -0.83177 933.825 
394 1 279.462 1.45984 2.60258 926.35 
395 1 282.146 -1.61969 2.64656 928.019 
396 1 281.894 1.69446 -0.85683 905.459 
397 2 281.777 0.745801 2.69689 928.157 
398 2 282.299 -1.31986 -0.687406 918.815 
399 2 279.131 2.12533 -0.394449 927.279 
400 2 279.529 -1.05874 2.41139 920.703 
401 1 -3.85217 4.18722 -0.797847 912.793 
402 1 -3.88648 7.83037 2.01067 911.326 
403 1 -1.24256 4.75354 2.17438 926.167 
404 1 -0.974732 7.65526 -0.616485 909.42 
405 2 -1.0681 7.67455 2.19685 898.527 
406 2 -1.36841 4.80292 -0.560041 949.453 
407 2 -4.17582 7.81975 -0.717012 904.057 
408 2 -4.00249 4.50393 1.77686 926.633 
409 1 1.29836 4.43192 -0.914298 925.986 
410 1 1.78304 7.53453 2.3162 907.97 
411 1 4.09359 4.31406 2.0168 900.854 
412 1 4.49002 7.73848 -0.695441 916.787 
413 2 4.36617 7.27242 2.317 925.169 
414 2 4.32956 4.76027 -0.705767 913.029 
415 2 1.62247 7.46801 -1.08844 907.654 
416 2 1.52974 4.70179 1.91831 925.458 
417 1 7.3033 4.42566 -0.915725 923.639 
418 1 6.92295 7.63579 2.32646 931.758 
419 1 10.4685 4.11651 2.07826 905.361 
420 1 10.3977 7.4285 -0.547137 951.531 
421 2 10.1016 7.42819 2.892 909.343 
422 2 9.94322 4.57821 -0.83559 929.42 
423 2 7.2057 7.62306 -0.351897 923.918 
424 2 7.16295 3.75243 2.68502 919.6 
425 1 12.9489 4.17119 -0.800142 943.129 
426 1 12.6178 7.48235 2.43288 932.425 
427 1 16.1707 3.95802 2.63863 911.124 
428 1 15.95 7.00894 -0.679486 934.681 
429 2 16.1699 7.2444 2.32402 928.757 
430 2 15.9131 4.11334 -0.475549 929.196 
431 2 12.7286 7.3732 -0.0721285 928.605 
432 2 12.9759 4.29172 2.30189 949.591 
433 1 18.5173 4.2829 -0.903867 945.943 
434 1 18.8154 7.5977 2.6007 944.308 
435 1 21.333 3.63697 2.13103 931.35 
436 1 21.6394 7.26291 -0.321223 919.064 
437 2 21.6708 8.00067 2.18424 947.665 
438 2 21.5086 4.60242 -0.764524 945.872 
439 2 18.8257 7.09731 -0.645937 946.813 
440 2 19.1805 4.31631 2.75759 948.651 
441 1 24.2295 4.56029 -0.443806 953.263 
442 1 24.2246 6.83449 2.41102 935.292 
443 1 27.4598 4.4433 2.22191 955.541 
444 1 27.6805 7.96506 -1.03704 949.078 
445 2 27.0315 7.31157 1.76939 971.505 
446 2 26.6896 4.5329 -0.859528 967.237 
447 2 24.2795 7.34889 -0.311036 931.436 
448 2 24.2477 4.2152 2.28416 939.95 
449 1 29.8253 4.31087 -0.91951 956.42 
450 1 30.649 7.18058 1.98012 977.623 
451 1 33.1621 4.07822 2.25314 972.661 
452 1 33.574 6.97652 -0.990237 948.409 
453 2 33.3375 6.90887 2.87546 957.181 
454 2 33.1104 4.40148 -0.430824 944.069 
455 2 30.187 7.59089 -0.70531 942.638 
456 2 30.4132 4.33418 2.68229 950.059 
457 1 35.9956 3.80741 -0.576842 960.599 
458 1 35.7653 6.62631 2.28938 945.37 
459 1 38.7573 4.36249 2.39566 983.372 
460 1 38.9442 7.44321 -0.654737 944.97 
461 2 39.2732 7.62185 2.49213 973.996 
462 2 38.7888 4.26977 -0.19826 961.432 
463 2 36.1248 7.12349 -0.511928 961.843 
464 2 35.8925 4.20448 2.96322 955.93 
465 1 41.3559 4.52143 -0.0825858 963.52 
466 1 41.7303 7.64608 3.20507 952.788 
467 1 44.4057 4.37862 2.68472 969.99 
468 1 44.5229 7.36489 -1.18502 980.541 
469 2 44.3579 7.17976 3.42446 976.047 
470 2 44.3238 4.19906 -0.0505536 974.33 
471 2 41.938 7.40271 -1.0637 967.227 
472 2 42.0019 4.041 2.73806 967.425 
473 1 47.1431 4.30378 0.0676568 962.77 
474 1 47.3396 7.57274 2.63911 978.74 
475 1 50.0952 4.60105 2.68307 993.952 
476 1 50.0651 7.46761 -0.620717 980.33 
477 2 50.0002 7.2804 2.6107 968.614 
478 2 50.1206 4.63898 -0.446504 977.049 
479 2 47.3721 7.36836 -0.562438 949.827 
480 2 47.1804 4.84985 2.89185 988.901 
481 1 53.0542 4.79508 -0.345984 970.46 
482 1 52.952 7.89271 2.63506 982.398 
483 1 55.6575 4.40011 2.53256 974.552 
484 1 55.7224 8.15984 -0.581546 997.294 
485 2 55.9826 8.23932 2.32392 991.914 
486 2 56.1412 4.7537 -1.36912 987.937 
487 2 52.9163 7.44127 -0.586071 991.105 
488 2 53.3417 4.62873 2.60844 999.501 
489 1 59.0914 4.6976 -0.522969 995.344 
490 1 58.9179 7.89833 2.46589 992.127 
491 1 61.5356 4.88983 3.08488 983.599 
492 1 62.3317 7.53605 0.0825439 970.948 
493 2 61.7354 7.65653 3.02524 969.816 
494 2 62.1778 4.72298 -0.389177 995.219 
495 2 58.9855 7.63875 -0.705545 978.707 
496 2 58.8971 4.14193 2.76906 969.507 
497 1 64.2104 3.65813 0.411534 1001.66 
498 1 64.5636 7.70496 2.91441 1004.35 
499 1 67.648 4.9806 2.53333 1010.77 
500 1 68.181 7.52683 -0.373149 1005.89 
501 2 68.1257 7.41644 2.34883 999.102 
502 2 67.041 4.60965 -0.735312 977.819 
503 2 64.8943 7.51703 -0.0590228 999.446 
504 2 64.711 4.25621 2.91105 996.84 
505 1 70.4781 3.84748 -0.270647 980.158 
506 1 71.0983 7.27949 2.67946 977.827 
507 1 74.4858 4.23705 2.36138 983.095 
508 1 73.2608 7.16586 -0.189127 990.548 
509 2 73.8085 6.97096 2.78931 991.415 
510 2 73.8782 4.29346 -0.464643 998.694 
511 2 70.6859 6.68106 0.0110611 1008.07 
512 2 70.7894 4.19066 2.41309 991.676 
513 1 76.6089 4.30795 -0.470293 990.468 
514 1 76.7675 7.64361 2.9225 999.065 
515 1 79.4739 4.62217 2.14047 1027.65 
516 1 79.2518 7.25399 -0.300715 1018.98 
517 2 79.5177 7.22566 2.8791 1000.84 
518 2 79.0355 4.07532 -0.378678 982.887 
519 2 76.8912 7.7519 -0.797851 1016.04 
520 2 77.0379 4.79608 2.62049 991.234 
521 1 82.9212 4.08444 -0.193874 1020.32 
522 1 82.4971 7.44822 2.38185 1035.66 
523 1 85.6208 4.23295 2.77501 1035.79 
524 1 85.2586 7.02762 -0.579003 1027.69 
525 2 85.5974 6.88982 1.86774 1022.93 
526 2 85.5602 4.1845 -0.788928 1010.5 
527 2 82.2694 6.65111 -0.264211 1013.75 
528 2 82.2518 4.56833 2.61114 1019.86 
529 1 88.3519 4.46151 -0.516749 1001.78 
530 1 88.2274 6.98032 2.23151 1008.65 
531 1 91.1852 4.83427 2.55622 1038.93 
532 1 91.3501 7.37385 0.17991 1013.02 
533 2 90.9575 7.35119 2.71262 1016.7 
534 2 91.5837 4.62016 -0.212994 1036.27 
535 2 88.5404 7.12549 -0.800021 999.415 
536 2 88.3453 4.25113 2.0652 1002.15 
537 1 93.7562 5.08629 -0.238522 1046.06 
538 1 94.8484 8.32234 2.45021 1021.31 
539 1 96.6447 4.38012 2.56604 1021.67 
540 1 97.065 7.54661 -0.305823 1019.49 
541 2 97.3818 7.39662 3.24137 1030.3 
542 2 96.3367 4.70339 -0.566634 1023.04 
543 2 94.3917 7.81082 0.0453769 1022.43 
544 2 94.0178 4.53928 2.59543 1002.64 
545 1 99.7475 4.47793 -0.753558 1039.44 
546 1 100.185 7.63458 2.14178 1025.69 
547 1 103.206 4.44714 2.50013 1054.37 
548 1 102.521 7.32016 -0.520995 1038.08 
549 2 102.791 7.16923 2.55126 1035.59 
550 2 102.996 4.17026 -0.302214 1020.13 
551 2 99.6594 7.34384 -0.479877 1027.91 
552 2 99.5902 4.78713 2.07028 1042.86 
553 1 105.379 4.07148 -0.659795 1052.64 
554 1 105.801 7.09058 2.48568 1044.38 
555 1 108.585 4.73228 3.27879 1039.46 
556 1 108.249 7.57095 -0.304682 1020.44 
557 2 108.447 7.60534 2.18202 1037.6 
558 2 108.185 4.30045 -0.652216 1051.29 
559 2 105.4 7.34689 -0.314351 1036.55 
560 2 105.939 4.34781 2.8579 1041.65 
561 1 110.784 4.26746 -0.614778 1045.04 
562 1 111.208 7.22725 2.43146 1024.72 
563 1 113.744 4.36404 3.46856 1067.87 
564 1 114.93 7.67527 0.431055 1069.95 
565 2 114.726 7.65908 3.43273 1030.57 
566 2 113.687 4.05584 0.424603 1046.73 
567 2 111.131 6.79382 -0.0861829 1064.58 
568 2 111.25 4.65125 3.63234 1062.66 
569 1 117.029 3.77576 0.162222 1059.78 
570 1 117.124 6.81124 3.04009 1051.37 
571 1 119.772 3.6741 2.71764 1045.67 
572 1 119.846 7.01521 -0.109255 1061.75 
573 2 120.415 6.95097 2.54076 1056.72 
574 2 119.822 3.95325 0.028361 1052.24 
575 2 117.099 6.53561 -0.329698 1034.08 
576 2 116.791 4.0346 2.95274 1041.65 
577 1 123.618 3.72701 -0.118326 1050.37 
578 1 123.299 6.97855 2.23414 1058.5 
579 1 126.245 4.77749 2.86361 1051.87 
580 1 126.049 6.92495 -0.669089 1066.51 
581 2 126.057 7.50538 2.79294 1056.98 
582 2 125.861 4.03688 -0.136789 1069.45 
583 2 123.265 6.48694 -0.795035 1062.33 
584 2 123.146 4.08362 2.69296 1079.12 
585 1 128.96 4.09136 -0.454982 1084.8 
586 1 129.148 7.27126 2.53047 1064.03 
587 1 131.607 4.08111 2.69408 1073.2 
588 1 131.255 7.86759 -0.339166 1081.74 
589 2 132.013 7.24484 2.51679 1066.39 
590 2 131.75 4.64701 -0.307434 1088.67 
591 2 128.823 7.06055 -0.267939 1068.46 
592 2 128.905 4.19763 2.13922 1066.1 
593 1 134.487 4.58371 0.328052 1073.57 
594 1 134.39 7.60428 2.1821 1090.87 
595 1 138.323 4.80434 2.96336 1075.91 
596 1 137.586 7.03868 -0.43154 1080.38 
597 2 137.542 7.53202 2.41882 1099.02 
598 2 137.428 4.23036 -0.202245 1079.1 
599 2 134.041 7.31732 -0.411373 1069.92 
600 2 134.424 3.97829 2.84572 1092.27 
601 1 141.031 4.36853 -0.741793 1085.38 
602 1 140.372 8.02043 2.02919 1098.3 
603 1 143.604 4.63888 2.94733 1117.38 
604 1 143.347 7.60123 0.11579 1102.49 
605 2 143.197 7.75212 2.78641 1073.35 
606 2 143.678 5.06504 -0.530538 1116.6 
607 2 140.441 6.98385 -0.402202 1087.09 
608 2 141.054 4.36778 2.44584 1066.32 
609 1 146.71 5.25219 -0.457876 1082.86 
610 1 145.75 7.39045 2.67524 1089.36 
611 1 149.182 4.87685 2.3257 1106.34 
612 1 149.544 7.89439 -0.64176 1089.34 
613 2 149.122 7.91759 2.32824 1065.25 
614 2 149.12 5.33175 -0.150292 1085.32 
615 2 146.187 7.82699 0.23827 1107.17 
616 2 146.364 4.86346 2.55268 1098.7 
617 1 152.789 4.31664 -0.828643 1088.77 
618 1 152.051 7.11745 2.29888 1068.75 
619 1 155.315 4.97978 2.8371 1074.48 
620 1 154.948 7.83999 0.143407 1062.41 
621 2 156.071 7.53096 2.43317 1082.84 
622 2 155.238 5.04641 -0.0243613 1075.55 
623 2 152.702 7.47346 -1.11876 1080.14 
624 2 152.215 4.62473 2.65898 1075.11 
625 1 157.673 5.34058 -0.460913 1059.14 
626 1 158.436 7.04106 2.78075 1073.93 
627 1 161.217 4.60392 2.29793 1076.27 
628 1 161.094 7.67208 -0.655106 1066.96 
629 2 161.208 7.79117 2.84485 1070.68 
630 2 161.213 5.01116 -0.545983 1057.38 
631 2 158.279 7.89329 -0.574413 1098.24 
632 2 158.172 4.59484 3.0139 1075.45 
633 1 163.683 4.67661 -0.137403 1070.6 
634 1 163.984 8.12516 2.46041 1065.26 
635 1 166.882 4.63117 2.20338 1079.29 
636 1 166.663 7.83134 -0.555432 1032.08 
637 2 167.061 7.92291 1.95809 1053.63 
638 2 166.681 4.63562 -0.784911 1055.25 
639 2 163.659 7.69025 0.0833178 1040.15 
640 2 164.005 4.17393 2.50541 1078.04 
641 1 169.353 4.77973 -0.800548 1039.16 
642 1 169.894 8.06669 2.2545 1040.28 
643 1 172.569 4.97998 2.51709 1051.19 
644 1 173.156 7.43688 0.0237919 1028.61 
645 2 173.094 8.10701 2.43512 1040.77 
646 2 172.798 4.61581 -0.0863787 1030.97 
647 2 170.531 7.79091 -0.501103 1046.4 
648 2 169.803 5.0675 2.6639 1063.46 
649 1 175.94 4.50382 -0.475241 1048.32 
650 1 175.576 7.623 2.99989 1041.67 
651 1 179.039 4.79507 2.79488 1061.73 
652 1 178.099 8.118 0.0490042 1046.19 
653 2 178.386 8.1652 2.58079 1050.48 
654 2 178.715 5.26684 -0.0972964 1055.07 
655 2 175.832 7.36002 -0.642637 1042.73 
656 2 175.211 4.60178 2.67848 1042.34 
657 1 181.834 4.91239 -0.175824 1041.71 
658 1 181.942 7.76466 1.81154 1041.67 
659 1 184.468 4.85228 2.56577 1052.7 
660 1 185.049 7.90399 -1.03069 1038.83 
661 2 184.399 7.8965 2.59266 1049.15 
662 2 184.416 4.99627 -0.81251 1049.62 
663 2 181.563 8.11245 -0.593367 1059.44 
664 2 181.639 4.96869 2.51153 1041.37 
665 1 187.335 4.53713 -0.290287 1018.64 
666 1 187.55 8.15542 2.37708 1043.71 
667 1 190.378 4.99203 2.41719 1046.55 
668 1 190.33 8.09424 -0.413801 1040.69 
669 2 190.219 8.12745 2.67168 1060.88 
670 2 190.566 4.50245 -0.429517 1052.21 
671 2 187.544 7.57314 -0.45347 1035.47 
672 2 187.713 4.72897 2.46782 1017.35 
673 1 193.481 4.91374 -0.422786 1041.28 
674 1 192.803 8.3599 2.62626 1023.97 
675 1 195.95 4.99174 2.69268 1000.73 
676 1 196.071 7.72418 -0.658167 1032.59 
677 2 196.094 7.56618 2.22742 1014.41 
678 2 196.009 4.33452 -0.0577397 1010.6 
679 2 193.217 7.78334 -1.01795 1031.18 
680 2 193.082 5.35508 2.65008 1049.58 
681 1 199.109 4.32174 -0.11391 1030.6 
682 1 198.778 7.53812 2.42269 1000.49 
683 1 201.886 5.30283 2.25652 1027.11 
684 1 201.912 8.01587 0.266821 1032.78 
685 2 201.665 7.89966 2.89583 994.892 
686 2 201.812 4.60406 -0.257346 1026.86 
687 2 199.324 7.18521 -0.312952 1026.55 
688 2 198.789 4.30503 2.85428 1034.01 
689 1 204.946 4.65498 -0.302997 1006.88 
690 1 205.254 7.80127 2.84467 1027.55 
691 1 207.786 4.75004 2.82853 1022.56 
692 1 208.266 7.67684 0.0378929 1008.76 
693 2 207.728 7.74482 2.9145 1020.5 
694 2 207.599 4.40052 -0.266874 1009.25 
695 2 205.686 7.14654 -0.101565 1026.16 
696 2 204.804 4.57237 2.46103 1032.71 
697 1 210.566 4.9352 -0.435599 986.172 
698 1 210.691 7.44265 2.57421 998.436 
699 1 214.121 4.83311 2.78235 967.782 
700 1 214.05 7.76207 -0.0443757 976.779 
701 2 213.607 7.78773 2.66039 1011.47 
702 2 213.67 4.95756 -0.363676 990.551 
703 2 210.616 7.98466 -0.282224 996.256 
704 2 210.64 4.93525 2.65631 965.212 
705 1 216.334 4.47535 -0.82474 980.374 
706 1 216.216 7.58425 2.77072 983.73 
707 1 219.276 4.55748 2.47161 985.825 
708 1 220.05 8.27065 -0.265018 994.908 
709 2 219.649 8.07025 2.589 1010.56 
710 2 219.24 4.43558 -0.448136 1004.59 
711 2 216.654 8.21772 -0.305284 974.928 
712 2 216.569 4.88582 2.21811 990.528 
713 1 221.939 4.89582 -0.234661 1001.63 
714 1 222.232 8.05591 2.48087 984.676 
715 1 224.547 5.29131 2.14251 987.523 
716 1 225.142 8.2736 -0.534403 972.068 
717 2 225.525 7.91476 2.02565 981.205 
718 2 224.758 5.12551 -0.638003 989.974 
719 2 222.509 8.09528 -0.488533 988.168 
720 2 221.885 5.12331 2.34736 979.634 
721 1 227.486 5.1141 -0.280307 990.944 
722 1 228.089 8.39364 2.2948 968.647 
723 1 230.636 4.9642 2.63991 1000.87 
724 1 230.662 7.96435 -0.637654 988.996 
725 2 230.584 8.08453 2.57137 971.508 
726 2 230.447 4.91439 -0.0532805 968.634 
727 2 228.026 7.74013 -1.24568 975.609 
728 2 227.467 4.34221 2.29718 984.763 
729 1 233.741 4.78844 -0.422717 991.245 
730 1 233.677 7.97325 2.30798 936.547 