ITEM: TIMESTEP
12000000
ITEM: NUMBER OF ATOMS
8400
ITEM: BOX BOUNDS pp pp pp
-5.9099547646241319e+00 2.8359995476463484e+02
-2.1446273254920634e+00 4.0174627325491812e+01
-1.7757301867509554e+00 1.6325730186751606e+01
ITEM: ATOMS id type x y z f_TolTpA 
1 1 -4.52872 -1.8115 -1.02584 907.12 
2 1 -4.54765 1.70101 2.0687 914.844 
3 1 -1.6514 -1.52593 2.11594 894.387 
4 1 -1.90092 1.40435 -1.09217 906.18 
5 2 -2.24564 2.40384 1.20201 898.941 
6 2 -1.80736 -1.45569 -0.595716 892.942 
7 2 -4.91761 1.70347 -1.02011 916.598 
8 2 -4.56466 -1.6557 2.06986 915.166 
9 1 1.26852 -1.49362 -0.76823 935.136 
10 1 0.74167 1.7374 1.41449 920.413 
11 1 4.61941 -1.3306 1.84453 914.478 
12 1 3.70719 1.77712 -1.02623 907.892 
13 2 3.99249 1.57467 1.86654 929.155 
14 2 4.2836 -1.33408 -0.953255 917.722 
15 2 1.23773 1.77925 -1.2579 912.484 
16 2 0.711314 -1.48256 2.04372 910.944 
17 1 7.29316 -1.3015 -0.93664 914.937 
18 1 7.02148 1.91137 2.06647 920.244 
19 1 9.72874 -1.24223 1.92056 934.632 
20 1 10.2269 1.63872 -1.18052 928.993 
21 2 9.95852 1.55591 1.79109 929.992 
22 2 9.87719 -1.29732 -1.08222 923.751 
23 2 7.76174 1.63865 -0.78392 925.214 
24 2 7.17626 -1.62286 1.98752 920.765 
25 1 13.0641 -1.70744 -1.34961 925.078 
26 1 13.425 1.80052 1.58759 940.757 
27 1 15.8315 -1.05091 1.73666 960.106 
28 1 15.8877 1.62432 -1.49654 943.369 
29 2 16.123 1.57648 1.33381 950.096 
30 2 15.6074 -1.62678 -1.21838 934.294 
31 2 13.1942 1.70983 -0.933226 932.908 
32 2 12.8633 -1.42979 1.75389 932.541 
33 1 18.488 -1.23787 -0.828618 928.689 
34 1 18.6532 1.92734 1.95086 944.739 
35 1 21.506 -2.09678 2.34394 933.251 
36 1 21.1787 1.77363 -1.11373 938.839 
37 2 21.3723 1.54856 2.7858 936.177 
38 2 21.3705 -1.5244 -0.571341 935.253 
39 2 18.6929 1.35068 -1.4322 932.425 
40 2 18.7103 -1.44117 2.1973 930.613 
41 1 24.3624 -1.32544 -0.655109 933.31 
42 1 24.3326 1.70382 1.84729 951.012 
43 1 27.128 -1.22365 1.80217 951.113 
44 1 27.9211 1.26691 -1.33447 945.955 
45 2 27.0519 1.68047 1.39672 942.008 
46 2 27.7344 -1.56099 -0.639654 952.011 
47 2 23.6001 1.33668 -0.809321 931.863 
48 2 24.477 -1.45107 1.97061 917.448 
49 1 30.5717 -1.55424 -0.857138 951.367 
50 1 30.2552 1.78782 1.96279 951.868 
51 1 32.982 -1.58645 2.18029 950.687 
52 1 33.1968 1.49323 -0.476291 958.409 
53 2 33.1846 1.43658 2.52601 942.087 
54 2 33.3231 -1.54743 -0.508708 956.547 
55 2 30.6048 1.82366 -0.560439 921.197 
56 2 30.2498 -0.750973 1.58976 956.231 
57 1 36.2514 -1.16268 -0.581105 974.992 
58 1 36.1914 1.6881 2.80082 946.199 
59 1 38.7188 -1.53951 2.23395 966.891 
60 1 38.8501 1.7499 -0.323911 937.159 
61 2 38.8483 1.65709 2.38161 951.891 
62 2 38.8668 -1.23209 -0.562272 962.632 
63 2 36.0336 1.78739 -0.120639 956.781 
64 2 36.0226 -1.66944 2.41869 946.575 
65 1 41.8606 -1.45302 -0.797488 961.054 
66 1 41.9828 1.26546 2.41008 955.542 
67 1 44.9864 -1.55691 2.18918 972.216 
68 1 44.8312 1.46295 -1.06716 980.587 
69 2 45.0153 1.62921 2.54851 978.355 
70 2 44.7482 -1.37033 -0.95616 966.511 
71 2 42.0404 1.47002 -0.302031 958.386 
72 2 41.7706 -1.74818 2.39417 981.135 
73 1 47.5093 -1.15785 -0.932462 981.913 
74 1 47.5934 1.98507 2.70704 980.49 
75 1 50.1914 -1.3727 1.72127 975.301 
76 1 50.0561 2.03552 -1.30482 968.708 
77 2 50.6339 1.43421 2.328 976.683 
78 2 49.8927 -1.35987 -1.25346 981.458 
79 2 47.6492 1.94685 -1.15681 986.275 
80 2 47.5741 -1.56327 1.7216 962.077 
81 1 53.0727 -1.33777 -0.725384 996.856 
82 1 53.302 1.17179 2.18637 971.8 
83 1 56.2426 -1.7529 2.03981 986.801 
84 1 56.2151 1.34899 -0.91062 961.517 
85 2 56.5557 1.12237 2.05221 994.588 
86 2 55.9345 -1.45824 -0.769609 983.613 
87 2 53.3982 1.43445 -1.09629 980.994 
88 2 53.4091 -2.00657 1.77687 1007.84 
89 1 59.0079 -1.90736 -0.95223 987.855 
90 1 59.2466 1.2388 2.02903 977.866 
91 1 61.943 -1.63824 1.90239 982.737 
92 1 62.3701 0.70138 -0.649786 1008.72 
93 2 61.9251 1.04616 1.83354 965.036 
94 2 61.9774 -2.01503 -0.659941 1007.83 
95 2 59.1692 1.40762 -0.699137 997.993 
96 2 59.1564 -1.75266 1.48136 985.807 
97 1 65.289 -1.72827 -1.01328 1016.14 
98 1 65.0724 1.5488 2.63407 1000.07 
99 1 67.7701 -2.01824 2.58603 1018.98 
100 1 67.6002 1.77905 -0.132782 997.496 
101 2 67.8181 1.54066 2.67435 993.925 
102 2 67.772 -1.53198 -0.132818 997.716 
103 2 65.1103 1.57012 -0.25318 997.191 
104 2 64.7412 -2.09536 2.08312 977.441 
105 1 70.608 -1.07865 -0.251431 1004.39 
106 1 70.6572 1.75142 2.72916 1027.18 
107 1 73.6947 -1.36668 2.30878 1012.94 
108 1 73.4378 2.1132 -0.446276 1017.66 
109 2 73.3058 1.77484 2.48814 1011.81 
110 2 73.7679 -0.659819 -0.489807 1016.46 
111 2 70.8307 1.55903 -0.686543 998.635 
112 2 70.282 39.9878 2.69956 1027.23 
113 1 76.6615 -0.791053 -0.383805 1003.04 
114 1 76.3046 1.83702 2.9372 1021.61 
115 1 79.74 -1.02495 2.11702 1015.03 
116 1 79.5704 1.74804 -0.394393 1021.88 
117 2 79.3371 1.79889 2.19423 1030.17 
118 2 79.698 -1.11348 -0.48183 1025.33 
119 2 76.4683 1.75621 0.0416206 1006.77 
120 2 75.9937 -0.786321 3.09053 1013.73 
121 1 82.7686 -1.35398 -0.241229 1012.86 
122 1 81.9827 1.99187 2.84938 1028.09 
123 1 85.0044 -1.40159 2.98592 1026.51 
124 1 85.6434 1.65537 0.0542085 1006.89 
125 2 85.2893 1.43877 2.71937 1023.97 
126 2 85.0463 -0.954217 0.0497066 1016.19 
127 2 82.5492 2.07577 -0.200918 1043.78 
128 2 82.3382 -1.34071 2.87871 1044.06 
129 1 88.4249 -1.30534 -0.118056 1050.53 
130 1 88.8441 1.09847 3.0759 1026.76 
131 1 91.4293 -1.91853 2.8725 1041.62 
132 1 91.5133 1.21647 -0.256604 1021.96 
133 2 91.4044 1.3481 3.01687 1027.15 
134 2 90.9805 -1.34105 0.295529 1036.14 
135 2 88.581 2.05545 -0.0500972 1041.93 
136 2 88.3133 -1.29252 3.12656 1017.23 
137 1 94.7032 -1.46737 0.27762 1020.93 
138 1 94.1093 1.55312 2.39928 1034.26 
139 1 96.5332 -1.3151 3.39578 1056.21 
140 1 97.301 1.84412 -0.240123 1036.27 
141 2 97.095 1.48998 2.80278 1037.16 
142 2 97.0983 -1.26721 0.0517526 1036.31 
143 2 94.2733 1.18572 -0.0897004 1018.47 
144 2 93.8888 -1.3087 2.66139 1033.54 
145 1 99.5603 -1.50989 -0.511476 1019.41 
146 1 99.5468 0.968311 2.86694 1032.45 
147 1 103.335 -1.86106 2.4377 1036.63 
148 1 102.727 1.30832 -0.4459 1040 
149 2 103.042 1.10151 2.71754 1033.3 
150 2 102.741 -1.50294 -0.779964 1033.67 
151 2 100.058 1.84139 -0.169632 1043.68 
152 2 100.093 -1.54201 3.03637 1035.99 
153 1 105.8 -1.82359 -0.34755 1052.24 
154 1 106.17 1.07626 2.60802 1046.99 
155 1 109.115 -0.937393 1.97644 1059.64 
156 1 108.29 1.25313 -0.939087 1061.97 
157 2 109.273 1.52352 2.37138 1063.97 
158 2 108.65 -1.51598 -0.618828 1068.68 
159 2 105.97 1.51359 -0.212637 1029.03 
160 2 105.84 -1.78868 3.03502 1040.9 
161 1 112.141 -1.99057 -0.272786 1061.71 
162 1 111.839 1.63117 1.99152 1075.05 
163 1 114.674 -0.715932 2.2824 1070.04 
164 1 114.364 1.52026 -1.01567 1056.91 
165 2 114.264 1.72695 2.02698 1048.78 
166 2 114.502 -1.16891 -0.225254 1037.62 
167 2 111.53 1.97253 -0.97376 1025.2 
168 2 111.765 -1.34005 2.48775 1078.02 
169 1 117.067 -1.28878 -1.10399 1062.58 
170 1 117.349 1.60214 3.04069 1059.58 
171 1 120.137 -1.24858 2.9137 1068.49 
172 1 120.184 1.08482 -0.266841 1074.09 
173 2 119.807 1.29929 2.71435 1073.01 
174 2 120.035 -1.15571 -0.864987 1084.14 
175 2 117.43 1.40724 -0.33353 1059.51 
176 2 117.353 -1.89285 3.21677 1053.55 
177 1 122.932 -1.20931 -0.991691 1063.77 
178 1 122.782 0.965189 2.88812 1072.21 
179 1 126.067 -1.4193 1.95043 1063.43 
180 1 125.89 1.58551 -0.553686 1097.02 
181 2 125.42 1.82186 2.56834 1087.57 
182 2 125.901 -1.58962 -0.862161 1090.86 
183 2 123.6 1.15418 -0.369082 1072.45 
184 2 123.195 -1.90081 1.91708 1090.79 
185 1 128.941 -1.60066 -0.702855 1096.18 
186 1 128.132 2.13701 1.86364 1091.71 
187 1 131.536 -0.556671 2.51806 1092.27 
188 1 131.467 2.09802 -0.665345 1083.49 
189 2 131.2 1.91261 2.36076 1094.37 
190 2 132.285 -1.22606 -0.347199 1079.77 
191 2 128.506 1.70239 -0.757037 1091.08 
192 2 128.638 -0.343282 1.90012 1077.4 
193 1 134.634 -1.08759 -0.26126 1097.54 
194 1 134.693 1.67877 2.4233 1104.36 
195 1 137.65 -1.15746 2.55886 1094.39 
196 1 138.33 1.82847 -0.533862 1088.73 
197 2 137.457 1.66803 2.54515 1075.95 
198 2 137.128 -1.44709 -0.275186 1103.88 
199 2 134.759 2.32548 -0.332476 1098.57 
200 2 134.442 -0.954061 2.85055 1093.54 
201 1 140.459 -1.40624 -0.837662 1124.2 
202 1 140.535 1.6906 2.68039 1079.4 
203 1 143.212 -1.49515 1.88875 1097.05 
204 1 143.504 1.54716 -0.545492 1115.79 
205 2 143.551 1.95538 2.12823 1100.68 
206 2 143.536 -1.70181 -0.794914 1126.28 
207 2 140.735 1.59811 -0.0119056 1082.15 
208 2 140.846 -1.17353 2.82209 1118.1 
209 1 145.844 -2.02519 -1.50607 1103.17 
210 1 146.073 0.950507 2.15139 1103.18 
211 1 149.106 -1.68228 2.31013 1087.73 
212 1 148.855 1.15954 0.132291 1093.92 
213 2 149.092 0.913391 2.63508 1094.36 
214 2 148.675 -1.7057 -0.123395 1098.77 
215 2 146.039 1.55466 -0.223237 1117.92 
216 2 145.965 -1.58522 2.92945 1080.25 
217 1 151.854 -1.63717 -0.536488 1081.38 
218 1 152.117 1.19412 1.98577 1075.32 
219 1 155.28 -0.988552 2.38384 1068.25 
220 1 155.256 2.06296 -0.834078 1087.23 
221 2 155.134 2.16219 2.17552 1039.56 
222 2 155.21 -0.924504 -0.418743 1064.66 
223 2 151.385 1.136 -0.660745 1090.71 
224 2 152.038 -1.45481 2.49304 1048.72 
225 1 157.957 -1.16051 -0.778928 1087.03 
226 1 157.431 1.72698 2.83725 1073.77 
227 1 161.335 -0.896189 2.42783 1062.59 
228 1 161.968 1.73038 -0.411185 1059.72 
229 2 161.911 1.78145 2.53032 1070.29 
230 2 161.755 -1.47374 -0.390271 1100.21 
231 2 158.497 1.28049 0.168363 1060.99 
232 2 158.014 -1.28005 2.77772 1073.67 
233 1 164.728 -1.38858 -0.135322 1077.12 
234 1 164.305 1.83105 3.00748 1030.19 
235 1 167.298 -0.980345 2.836 1042.4 
236 1 166.966 1.95815 -0.447583 1051.61 
237 2 167.535 1.82381 2.73404 1053.46 
238 2 167.297 -0.897946 -0.387715 1067.65 
239 2 164.388 1.82363 -0.46258 1066.8 
240 2 164.517 -0.900579 3.09034 1065.4 
241 1 170.313 -1.5628 -0.334396 1062.66 
242 1 170.214 1.37296 2.47869 1048.16 
243 1 173.132 -0.919585 2.57416 1059.34 
244 1 173.288 1.69884 -0.645597 1057.09 
245 2 173.253 1.63372 2.17082 1051.14 
246 2 173.301 -1.70992 0.126408 1070.48 
247 2 170.519 1.62899 -0.822174 1066.83 
248 2 170.267 -1.40029 2.4681 1077.46 
249 1 176.262 -0.942868 -0.400352 1040.9 
250 1 175.684 1.84084 3.07023 1040.57 
251 1 179.343 -1.32842 2.89716 1041.29 
252 1 178.678 1.353 -0.924331 1042.69 
253 2 179.436 1.40065 2.97963 1037.88 
254 2 178.928 -1.46625 -0.962674 1026.79 
255 2 175.969 1.4962 -0.625552 1063.7 
256 2 175.926 -0.628033 3.0173 1027.75 
257 1 181.526 -1.19697 -0.772373 1043.41 
258 1 181.854 1.83687 2.75766 1031.83 
259 1 184.399 -1.87467 2.23621 1035.35 
260 1 184.629 1.69748 -0.33792 1037.62 
261 2 184.519 2.02148 2.63233 1021.06 
262 2 184.655 -1.40272 -0.385684 1021.03 
263 2 181.992 1.52359 -0.68591 1043.13 
264 2 181.799 -1.55246 2.65071 1007.62 
265 1 187.779 -1.33995 -0.762951 1010.97 
266 1 187.463 2.00818 2.52972 1033.7 
267 1 189.846 -1.12186 2.75596 1031.94 
268 1 189.927 1.99461 -0.275911 1014.51 
269 2 190.405 1.86944 2.55611 1029.97 
270 2 190.247 -0.630325 -0.328196 1006.12 
271 2 187.323 1.86161 -0.0662811 1054.4 
272 2 186.927 -1.59393 2.89174 1039.21 
273 1 193.078 -1.05444 -0.553733 999.727 
274 1 193.326 2.14665 2.42394 1017.51 
275 1 196.52 -1.33574 2.80382 1011.34 
276 1 196.426 1.25541 -0.178045 997.459 
277 2 195.81 1.75222 3.00198 1031.72 
278 2 195.863 -1.08814 0.196404 1001.98 
279 2 193.384 2.25584 -0.30746 1007.32 
280 2 192.355 40.106 1.9953 1040.49 
281 1 199.277 -1.56759 0.647083 996.98 
282 1 198.322 1.85847 3.38972 996.525 
283 1 201.818 -1.08307 2.65199 1020.68 
284 1 201.619 1.9102 0.159592 980.097 
285 2 201.924 1.37573 2.60939 995.056 
286 2 201.999 -1.588 0.212085 1010.17 
287 2 198.853 1.861 0.519793 1006.5 
288 2 198.978 -1.10112 2.96147 1002.49 
289 1 204.955 -0.921351 0.0552337 964.73 
290 1 204.818 1.95961 3.09063 993.41 
291 1 207.457 -1.12186 2.99815 991.688 
292 1 207.726 1.4895 -0.307406 987.908 
293 2 207.763 1.6337 2.94225 1012.17 
294 2 207.355 -1.66443 0.0716364 1011.18 
295 2 204.905 1.90885 0.10302 987.248 
296 2 204.782 -0.77645 2.76789 982.425 
297 1 210.551 -1.31417 -0.0446297 1006.5 
298 1 210.557 1.58964 2.87411 993.944 
299 1 213.107 -1.11905 2.69994 990.293 
300 1 213.438 2.01388 -0.634232 999.194 
301 2 213.526 2.21536 2.31064 984.838 
302 2 213.219 -1.30706 -0.087819 1007.02 
303 2 210.538 1.3446 -0.360517 1009.6 
304 2 210.518 -1.23819 3.02649 1004.54 
305 1 215.989 -1.14911 -0.278638 989.457 
306 1 216.251 2.29788 2.62504 988.99 
307 1 219.358 -1.23078 2.47644 983.571 
308 1 218.875 1.66331 -0.929931 987.092 
309 2 218.803 1.81462 2.86696 966.572 
310 2 218.733 -0.769249 -0.00294853 1005.22 
311 2 216.194 2.1028 -0.330488 1012.64 
312 2 215.816 -1.55978 2.56788 997.548 
313 1 222.365 -1.00184 -0.608917 1002.94 
314 1 221.593 2.07888 2.19691 991.574 
315 1 224.485 -1.49962 2.11842 1004.24 
316 1 225.15 1.38086 -0.86075 989.408 
317 2 224.967 1.0725 2.51294 991.637 
318 2 224.943 -1.39084 -0.581848 975.391 
319 2 222.04 1.57672 -0.424002 982.358 
320 2 221.863 -0.751681 2.53066 991.937 
321 1 228.043 -1.50901 -0.881703 987.573 
322 1 227.422 1.67866 2.46319 954.194 
323 1 230.661 -1.41453 2.1299 965.372 
324 1 230.629 2.11129 -0.903666 974.047 
325 2 230.841 1.4218 2.59393 957.816 
326 2 230.659 -1.17761 -0.735438 990.862 
327 2 227.852 1.17349 -1.18611 975.429 
328 2 227.533 -1.42645 2.03613 987.048 
329 1 233.137 -1.23545 -0.650581 983.493 
330 1 233.216 1.99519 3.12037 969.383 
331 1 236.568 -0.77453 2.41555 952.265 
332 1 235.818 1.83029 -0.49596 962.724 
333 2 236.182 1.93898 2.70143 964.337 
334 2 236 -1.32138 -0.68384 972.215 
335 2 233.126 1.06753 -1.19121 981.349 
336 2 233.818 -1.58339 2.20151 938.985 
337 1 238.762 -1.06838 -0.963891 953.434 
338 1 239.372 1.70234 2.29159 943.858 
339 1 242.418 -1.1704 2.38477 967.043 
340 1 241.606 2.14492 -0.779085 966.543 
341 2 241.854 1.68405 2.23209 949.829 
342 2 241.974 -1.47815 -0.577613 933.667 
343 2 238.947 1.85616 -0.394799 964.776 
344 2 238.885 -1.16754 2.20347 964.099 
345 1 244.98 -1.41606 -0.525044 942.124 
346 1 244.701 2.18531 2.50113 952.243 
347 1 247.625 -1.69103 2.57052 929.233 
348 1 247.755 1.86488 -0.38743 914.322 
349 2 247.307 2.15874 2.49759 955.809 
350 2 247.527 -1.43672 -0.551092 936.526 
351 2 244.982 1.75359 -0.519791 962.589 
352 2 245.097 -1.75081 3.08502 960.897 
353 1 250.836 -1.47205 -1.07698 935.417 
354 1 249.994 1.62435 2.09903 928.636 
355 1 253.268 -1.72968 2.08361 957.221 
356 1 253.251 1.65187 -0.857479 949.627 
357 2 252.81 1.53977 2.23669 938.747 
358 2 253.585 -1.56553 -0.967179 939.96 
359 2 250.742 1.74116 -0.691678 931.66 
360 2 250.309 -1.43351 2.20733 947.524 
361 1 256.15 -1.35587 -1.1336 942.097 
362 1 255.585 1.4127 2.00747 947.881 
363 1 258.795 -1.4866 1.64686 953.421 
364 1 259.107 1.48009 -0.337004 935.973 
365 2 259.038 1.43567 1.94855 939.81 
366 2 259.006 -1.34642 -1.03699 961.966 
367 2 255.844 1.61834 -0.549142 939.056 
368 2 256.443 -1.85366 2.51795 949.801 
369 1 262.005 -1.49918 -0.942562 943.817 
370 1 262.16 1.81781 2.13321 915.121 
371 1 264.634 -1.42521 2.3035 920.096 
372 1 264.374 1.54525 -0.853823 921.643 
373 2 265.321 1.83287 1.51923 941.818 
374 2 265.12 -1.2819 -0.827203 900.456 
375 2 261.641 1.39345 -0.97953 934.955 
376 2 262.26 -1.29454 1.91564 931.009 
377 1 267.751 -1.26565 -0.746346 919.698 
378 1 267.831 1.96577 1.63437 927.053 
379 1 271.166 -1.50233 2.44948 928.781 
380 1 271.022 1.52141 -0.484921 922.924 
381 2 270.915 2.10674 2.56249 925.354 
382 2 271.38 -1.35259 -0.801637 939.829 
383 2 267.995 1.869 -1.07781 927.15 
384 2 268.091 -1.48092 1.85376 919.154 
385 1 273.962 -1.28726 -1.22445 938.424 
386 1 273.737 1.79089 2.31252 911.68 
387 1 276.692 -1.65042 2.66988 909.212 
388 1 276.675 1.72277 -1.08256 914.441 
389 2 276.389 1.07169 2.0347 931.864 
390 2 276.488 -1.76373 -1.39886 923.355 
391 2 273.451 2.19449 -0.479715 910.904 
392 2 273.935 -1.74224 2.32372 906.85 
393 1 279.22 -1.55731 -1.74014 917.68 
394 1 278.716 1.99862 2.72466 916.304 
395 1 281.625 -0.703552 1.31732 930.137 
396 1 281.995 1.61077 -1.2726 922.146 
397 2 281.781 1.66809 1.6619 899.347 
398 2 281.965 -1.62618 -1.54532 916.495 
399 2 279.163 1.95416 -1.31528 906.703 
400 2 279.202 -1.44016 2.23739 913.546 
401 1 -4.88825 4.61834 -0.638983 931.77 
402 1 -4.87166 7.97037 2.20381 921.006 
403 1 -1.35219 5.04577 2.05749 909.476 
404 1 -2.01619 8.07515 -0.804462 907.622 
405 2 -1.91574 7.74112 1.71391 904.292 
406 2 -1.12299 5.54419 -0.853415 903.371 
407 2 -4.74571 7.94721 -0.72236 893.209 
408 2 -4.55365 4.78182 1.9083 897.996 
409 1 1.47896 5.07276 -0.622017 894.62 
410 1 1.37062 7.542 1.8931 934.973 
411 1 4.3896 4.53147 2.13258 922.395 
412 1 4.33477 7.87345 -0.956808 929.748 
413 2 4.26026 7.81612 2.1426 919.053 
414 2 4.01942 4.38273 -0.664608 921.638 
415 2 1.37639 8.0876 -0.579569 914.167 
416 2 1.45414 4.55726 2.23488 918.874 
417 1 7.21602 4.10038 -1.0301 910.602 
418 1 7.34081 7.49885 1.77526 907.723 
419 1 9.90805 4.09401 2.24939 918.022 
420 1 10.073 7.45147 -0.972559 928.716 
421 2 10.0747 7.59727 1.67426 929.575 
422 2 9.98503 4.36456 -1.58515 932.147 
423 2 7.36257 7.42073 -1.30699 922.24 
424 2 7.06495 4.72871 2.3424 909.825 
425 1 13.2902 4.64457 -1.25836 931.289 
426 1 12.7381 7.12964 1.8958 932.903 
427 1 16.1602 4.60411 2.19109 914.325 
428 1 15.9599 7.58592 -1.25671 931.56 
429 2 15.9874 7.20802 2.2485 981.179 
430 2 16.174 4.3482 16.2772 959.378 
431 2 13.1587 7.24136 -1.25974 953.349 
432 2 12.6329 4.22908 2.06975 924.085 
433 1 18.8768 4.9078 -1.2328 915.402 
434 1 19.1431 6.92429 2.01524 938.764 
435 1 21.898 4.52165 2.28981 956.958 
436 1 21.9552 7.46132 -0.880084 966.192 
437 2 22.1099 7.3479 2.11502 925.12 
438 2 21.6388 4.22399 -1.60111 936.085 
439 2 19.0736 7.38108 -0.587962 938.903 
440 2 18.995 4.37476 1.64125 942.705 
441 1 24.2161 4.05788 -1.09396 942.62 
442 1 24.6683 6.92225 1.85808 967.989 
443 1 26.8713 4.5994 1.71428 952.282 
444 1 27.3436 7.79186 -1.42669 925.502 
445 2 27.3936 6.94666 2.1004 947.782 
446 2 27.1011 4.52554 -1.10431 938.74 
447 2 24.5286 7.8695 -0.538472 939.849 
448 2 24.2882 4.27617 1.74158 939.889 
449 1 30.013 4.51134 -0.74822 949.11 
450 1 30.3451 7.83525 2.18096 945.22 
451 1 33.3362 4.35615 2.34679 960.424 
452 1 32.8114 7.59685 -1.02574 941.802 
453 2 33.1352 7.63433 2.59756 950.632 
454 2 33.0463 4.69309 -0.660875 940.715 
455 2 29.9314 7.48338 -1.13363 951.197 
456 2 30.6772 4.54519 2.33605 949.573 
457 1 35.6769 4.91053 -0.90188 961.251 
458 1 36.1437 7.60747 2.73017 951.624 
459 1 39.2326 4.99209 2.23084 964.211 
460 1 38.2084 7.63945 -0.85895 942.741 
461 2 39.0453 7.53358 2.73908 963.456 
462 2 38.9296 5.09156 -0.543292 958.845 
463 2 35.605 7.75896 -1.12696 956.445 
464 2 36.1572 4.89821 2.8164 955.677 
465 1 41.8595 4.12723 -0.31799 974.091 
466 1 41.8949 7.78278 2.21499 969.524 
467 1 45.0407 4.58197 2.91276 985.056 
468 1 44.6679 7.69378 -0.699934 987.616 
469 2 44.961 7.51824 2.73968 972.577 
470 2 44.8235 5.11663 -0.873423 954.554 
471 2 41.4799 7.74696 -0.422169 954.515 
472 2 42.0467 4.99487 2.40944 984.079 
473 1 47.5259 4.59066 -0.923644 978.54 
474 1 47.5187 7.63459 2.31263 977.681 
475 1 50.7352 4.80609 2.04776 954.316 
476 1 50.3764 8.0117 -0.589162 992 
477 2 50.6657 7.29437 2.02123 984.298 
478 2 50.5128 4.56302 -0.965604 981.161 
479 2 47.3794 7.98579 -0.655891 998.78 
480 2 47.7954 4.75664 1.79448 991.602 
481 1 53.3319 4.62053 -0.206698 988.262 
482 1 53.5128 7.65651 2.33411 999.661 
483 1 56.2172 4.72095 2.48214 988.962 
484 1 56.2029 7.64859 -0.460918 981.679 
485 2 56.5083 8.0046 2.16337 980.007 
486 2 56.0288 4.53646 -0.6121 987.936 
487 2 53.9162 7.6063 -0.515301 975.567 
488 2 53.5144 4.08194 2.56009 971.973 
489 1 59.6242 4.07698 -0.669322 981.624 
490 1 59.1061 7.02627 2.17986 990.95 
491 1 61.8374 3.56919 2.56109 1010.3 
492 1 62.0457 7.2401 -0.587205 1007.99 
493 2 62.0509 6.82404 2.43448 1000.36 
494 2 62.0522 4.23599 -0.636863 968.022 
495 2 59.1998 7.50036 -0.922616 977.207 
496 2 59.5335 4.19833 2.09335 1001.05 
497 1 64.5101 4.20486 -0.206874 1007.75 
498 1 65.1283 7.06377 2.57286 976.264 
499 1 67.975 4.26251 2.60562 990.342 
500 1 67.4267 7.60617 -0.652754 1013.96 
501 2 67.9012 7.78376 2.75864 993.307 
502 2 68.2926 4.89441 -0.190784 1014.97 
503 2 64.7192 7.37309 -0.353663 962.646 
504 2 65.1944 4.37203 2.55628 996.327 
505 1 70.9695 4.81558 -0.150142 1015.87 
506 1 70.395 7.54392 2.21599 1009.94 
507 1 73.639 4.7341 3.23877 1003.93 
508 1 73.7074 7.51698 0.0515162 1017.21 
509 2 73.589 7.54187 2.83607 1000.15 
510 2 73.8124 4.80421 -0.418125 1013.41 
511 2 70.2959 8.02976 -0.36607 1004.85 
512 2 70.6228 4.34513 2.41262 1032.05 
513 1 76.3237 4.79094 -0.0424011 1019.04 
514 1 76.6025 7.6328 2.87119 1014.01 
515 1 78.8637 4.70537 2.44095 1003.06 
516 1 79.3854 7.44425 0.0369839 1017.23 
517 2 79.2292 7.92992 2.77496 991.999 
518 2 79.0036 4.75684 -0.273905 1003.48 
519 2 76.5318 7.71336 0.229645 993.707 
520 2 76.4699 4.86689 3.02717 1016.26 
521 1 82.7237 4.86053 0.463481 1003.57 
522 1 82.0491 8.09822 3.43286 1025.85 
523 1 85.3297 4.15414 3.29177 1023.45 
524 1 85.2784 7.64145 0.282583 987.796 
525 2 85.8088 6.61812 2.85731 1008.61 
526 2 85.4441 4.6777 0.160483 1027.73 
527 2 82.7737 7.51192 -0.0175407 1009.45 
528 2 82.2132 5.19467 3.13362 1017.09 
529 1 88.2786 4.56809 -0.325734 1033.97 
530 1 88.2416 6.56833 3.58783 1022.02 
531 1 91.5205 4.82582 2.74922 1054.46 
532 1 91.5808 7.97394 0.298515 1033.84 
533 2 91.4293 8.02802 3.13781 1035.75 
534 2 91.7489 4.70316 0.201143 1044.62 
535 2 88.4785 7.33506 -0.260288 1024.81 
536 2 88.7349 3.88013 3.38833 1023.87 
537 1 94.6153 4.53744 -0.00226966 1013.59 
538 1 94.1306 8.04774 3.44255 1025.11 
539 1 96.5773 4.42627 3.33666 1041.55 
540 1 97.1475 7.43037 0.34997 1040.19 
541 2 96.9526 7.16378 3.23519 1031.56 
542 2 97.0166 4.8392 -0.392393 1014.77 
543 2 94.3345 8.02958 -0.158689 1006.43 
544 2 94.0727 4.2512 2.77527 1040.07 
545 1 99.636 4.63603 0.026267 1036.01 
546 1 100.454 6.76073 2.85694 1063.84 
547 1 103.252 3.47512 2.79143 1035.55 
548 1 102.895 8.1714 0.152709 1068.5 
549 2 102.689 7.9279 2.92636 1054.49 
550 2 102.661 5.17523 0.530662 1023.06 
551 2 100.183 7.7455 -0.348443 1040.23 
552 2 99.7566 4.25491 3.05481 1033.89 
553 1 105.876 4.21546 -0.459782 1029.12 
554 1 105.312 6.76241 2.50439 1062.45 
555 1 108.75 4.80079 2.85272 1053.74 
556 1 108.746 7.64544 0.248131 1070.02 
557 2 108.998 7.94488 2.74612 1056.16 
558 2 108.746 4.32817 -0.491292 1048.91 
559 2 105.736 7.63496 0.104976 1064.49 
560 2 106.256 4.25689 3.03681 1054.08 
561 1 111.397 4.90509 -0.421808 1086.83 
562 1 111.761 8.18157 2.65707 1066.19 
563 1 114.145 4.71017 2.45287 1057.27 
564 1 114.269 8.07109 -0.281415 1047.98 
565 2 114.442 7.72526 2.67038 1052.76 
566 2 113.967 4.79534 -0.360838 1046.33 
567 2 111.507 8.19983 -0.328437 1047.04 
568 2 111.327 4.6748 2.91252 1053.05 
569 1 117.648 4.07463 -0.253469 1081.07 
570 1 117.392 7.39582 2.61149 1065.46 
571 1 120.207 4.25025 2.62976 1059.22 
572 1 120.043 7.6985 -0.227878 1071.22 
573 2 120.309 7.85493 2.36937 1071.93 
574 2 120.528 3.85235 -0.540235 1061.48 
575 2 117.127 8.08445 -0.6038 1053.49 
576 2 117.782 4.42435 2.50895 1070.74 
577 1 123.189 4.28432 -0.262661 1068.55 
578 1 123.089 7.95427 2.21376 1054.21 
579 1 125.982 4.17167 3.19783 1100.52 
580 1 125.859 7.72422 -0.389816 1087.68 
581 2 125.84 7.84431 2.42353 1084.54 
582 2 125.769 4.94818 -0.643265 1082.81 
583 2 122.758 7.89563 -0.640277 1061.57 
584 2 123.099 4.58643 2.75513 1063.37 
585 1 128.498 5.23201 -0.595089 1134.85 
586 1 128.484 8.15297 2.62905 1070.34 
587 1 132.036 4.57063 2.54296 1083.68 
588 1 131.324 7.5998 -0.383939 1088.4 
589 2 131.489 7.98727 2.39181 1110.36 
590 2 131.512 4.93128 -0.410248 1089.38 
591 2 128.767 7.98016 -0.370143 1092.65 
592 2 128.936 4.90559 2.48895 1087.87 
593 1 134.43 4.81136 -0.528781 1086.9 
594 1 134.662 7.66871 3.16087 1098.38 
595 1 137.735 4.65109 2.46864 1111.25 
596 1 138.008 7.89687 -0.591993 1120.67 
597 2 137.617 8.09862 2.34564 1091.83 
598 2 138.181 4.88824 -0.442925 1114.43 
599 2 135.076 7.60513 -0.842787 1114.47 
600 2 134.762 4.77995 2.26716 1106.06 
601 1 140.871 5.22245 -0.750033 1117.27 
602 1 140.667 7.62191 2.53665 1088.31 
603 1 143.437 5.02373 2.76978 1080.28 
604 1 143.308 7.62776 -0.763214 1101.62 
605 2 143.447 8.17416 2.09495 1088.89 
606 2 143.556 5.14333 -0.776702 1098.82 
607 2 140.509 7.91471 -0.637618 1094.27 
608 2 140.734 5.23132 3.0234 1076.19 
609 1 146.479 1.6235 14.7458 1097.96 
610 1 146.181 4.50591 -0.389593 1086.68 
611 1 149.855 5.52628 2.34161 1089.59 
612 1 148.999 8.1158 -0.504145 1050.89 
613 2 148.908 8.15524 2.44417 1072.87 
614 2 149.277 4.81431 -0.564196 1057.75 
615 2 146.169 8.52111 -0.399821 1089.52 
616 2 146.134 5.15134 2.75419 1106.01 
617 1 151.864 4.78968 -0.547686 1071.15 
618 1 152.452 7.94033 3.03368 1056.42 
619 1 155.348 4.9694 1.82296 1068.4 
620 1 154.861 8.27319 -0.801005 1070.95 
621 2 155.243 7.60648 2.85907 1082.02 
622 2 155.285 4.70744 -0.774985 1073.73 
623 2 152.315 8.00606 -0.623376 1077.84 
624 2 152.377 4.6161 2.1248 1059.66 
625 1 158.531 4.10745 -0.0211713 1049.41 
626 1 158.089 7.93498 2.83753 1067.57 
627 1 161.322 5.39816 2.73752 1073.75 
628 1 161.157 7.5979 -0.530943 1049.99 
629 2 161.203 8.13954 2.38988 1073.79 
630 2 161.359 4.37882 -0.68944 1070.01 
631 2 158.494 7.01762 -0.0737776 1065.1 
632 2 158.689 4.69219 2.95338 1071.48 
633 1 163.972 5.25381 -0.761998 1043.88 
634 1 164.002 7.94107 2.82667 1047.39 
635 1 167.323 4.46225 2.54618 1037.23 
636 1 167.4 7.44822 -0.383769 1068.41 
637 2 167.462 7.35864 2.19684 1053.68 
638 2 167.061 4.62484 -0.255748 1077.8 
639 2 163.765 7.59967 -0.646443 1042.24 
640 2 163.894 5.05876 3.18465 1085.73 
641 1 170.752 4.47569 -0.406551 1058.95 
642 1 170.401 7.53088 2.19804 1056.3 
643 1 173.149 4.90263 2.47034 1050.09 
644 1 173.443 7.28137 -0.17023 1067.74 
645 2 173.374 7.66432 2.28604 1050.71 
646 2 173.791 4.60867 -0.456893 1050.45 
647 2 170.628 7.16923 -0.637271 1058.63 
648 2 170.321 4.18983 2.64792 1023.32 
649 1 176.277 4.86651 -0.427446 1053.42 
650 1 176.188 7.96755 2.62886 1033.88 
651 1 178.438 4.27472 2.91165 1049.65 
652 1 178.964 8.13173 -0.301137 1027.69 
653 2 178.766 8.05784 2.35952 1068.17 
654 2 178.852 4.07308 -0.570264 1064.39 
655 2 176.141 7.83103 -0.448022 1053.89 
656 2 176.14 4.85741 2.31937 1025.25 
657 1 181.386 4.74887 -0.519755 1031 
658 1 181.41 8.27419 2.62677 1019.58 
659 1 184.102 4.97602 3.06394 1044.34 
660 1 184.453 7.31204 -0.335511 1037.36 
661 2 184.021 7.66713 2.09098 1024.96 
662 2 184.187 4.68544 -0.286354 1031.54 
663 2 181.368 8.36638 -0.00643142 1026.71 
664 2 181.406 4.8434 2.70187 1036.29 
665 1 187.509 5.15205 -0.418904 1027.11 
666 1 187.307 7.50055 2.85632 1026.98 
667 1 190.169 4.48579 2.82736 1009.91 
668 1 189.87 7.86804 0.0182075 1024.27 
669 2 190.195 8.33127 2.71874 1028.37 
670 2 189.919 4.73485 -0.0646769 1025 
671 2 186.958 7.81796 -0.211229 1043.04 
672 2 187.587 4.84404 3.02877 1037.3 
673 1 192.822 4.77073 0.0764665 1044.41 
674 1 192.988 7.86157 3.20394 1009.15 
675 1 195.954 4.90698 3.0909 1024.16 
676 1 195.471 8.1112 0.234247 1021.56 
677 2 195.972 7.99728 3.34471 1038.22 
678 2 195.714 5.4595 -0.205204 1034.62 
679 2 193.064 7.39004 -0.131818 1030.57 
680 2 192.712 5.04585 2.97938 1025.85 
681 1 198.651 4.74073 -0.298216 1023.33 
682 1 199.13 7.23828 3.26482 1012.12 
683 1 201.417 4.87906 3.04956 1007.48 
684 1 201.985 7.71092 -0.185219 1011.12 
685 2 202.111 7.57551 3.21992 1022.78 
686 2 201.597 4.73351 0.170207 1006.01 
687 2 198.92 7.65359 -0.142954 998.144 
688 2 198.743 4.48213 3.08169 1024.97 
689 1 204.731 4.72564 0.107895 1003.53 
690 1 204.718 7.88156 2.84977 990.282 
691 1 207.605 4.33433 2.50418 972.384 
692 1 207.241 7.75347 -0.543893 992.691 
693 2 207.063 7.21133 2.81662 983.72 
694 2 207.828 4.72717 -0.21571 991.19 
695 2 204.506 7.46745 -0.388926 989.055 
696 2 204.784 4.49387 2.96246 988.223 
697 1 210.719 4.70373 -0.379626 998.207 
698 1 210.425 7.40321 2.84784 952.085 
699 1 213.296 5.10228 3.19782 986.209 
700 1 213.578 7.68598 -0.202292 973.724 
701 2 213.469 7.47506 3.89688 996.873 
702 2 213.361 5.2796 -0.562749 996.873 
703 2 210.418 7.77425 0.310357 984.94 
704 2 210.757 4.59997 2.67887 1006.7 
705 1 216.15 4.86464 -0.550804 1002.25 
706 1 215.959 8.34076 2.84362 989.526 
707 1 218.984 4.95921 2.87819 1006.52 
708 1 218.861 7.39443 -0.416618 989.653 
709 2 218.772 7.9554 2.43926 981.971 
710 2 219.155 4.86773 -0.706088 995.98 
711 2 216.027 7.86039 -0.497744 996.801 
712 2 216.088 5.02849 3.05798 1002.87 
713 1 222.141 4.44648 -0.588739 982.93 
714 1 222.084 7.54881 2.56075 977.737 
715 1 224.546 4.0184 2.38209 974.696 
716 1 225.179 7.48096 0.0275863 967.692 
717 2 224.584 7.82632 2.72673 991.247 
718 2 224.74 4.23564 -0.379761 975.669 
719 2 222.115 7.57347 -0.0361881 969.074 
720 2 221.753 4.7783 2.35754 986.876 
721 1 227.835 4.13899 -0.433702 965.98 
722 1 227.625 7.48161 2.67495 979.83 
723 1 230.718 4.94274 2.50582 963.537 
724 1 230.234 8.44515 -1.03843 987.813 
725 2 230.799 8.1526 2.51785 977.601 
726 2 230.49 4.34958 -0.161762 997.479 
727 2 227.828 7.66316 -0.0824952 966.767 
728 2 227.294 4.75203 2.37609 976.322 
729 1 233.305 4.54272 -0.109378 955.838 
730 1 233.812 8.18751 2.04961 958.796 
731 1 236.402 4.69251 2.7995 964.897 