ITEM: TIMESTEP
2500000
ITEM: NUMBER OF ATOMS
8400
ITEM: BOX BOUNDS pp pp pp
-5.9099547646241319e+00 2.8359995476463484e+02
-2.1446273254920634e+00 4.0174627325491812e+01
-1.7757301867509554e+00 1.6325730186751606e+01
ITEM: ATOMS id type x y z f_TolTpA 
1 1 -4.76598 -0.897519 -0.544545 894.136 
2 1 -4.64625 1.40616 2.89946 904.639 
3 1 -1.70012 -1.36284 2.45412 886.047 
4 1 -1.62436 1.47651 -0.0101755 901.947 
5 2 -1.8798 2.03823 2.54015 885.821 
6 2 -1.03847 -1.35461 -0.112769 895.606 
7 2 -4.54041 1.50689 -0.627195 905.266 
8 2 -4.42027 -1.05869 2.4543 904.514 
9 1 1.882 -0.868699 -0.580867 896.364 
10 1 1.1554 1.46647 2.08889 894.89 
11 1 4.49792 -0.895261 2.457 927.37 
12 1 4.73277 1.72101 -0.238595 906.291 
13 2 4.15913 1.71269 2.47009 907.428 
14 2 4.49558 -1.16674 -0.196752 912.213 
15 2 1.77479 1.53368 -0.647525 900.207 
16 2 1.29648 -1.16443 2.25709 921.701 
17 1 7.53801 -1.82821 -0.617156 909.215 
18 1 7.06024 2.36394 2.49505 912.42 
19 1 10.3677 -1.60816 3.05375 932.347 
20 1 9.77879 1.0935 -0.276296 931.443 
21 2 10.2522 1.21109 2.40839 892.818 
22 2 10.2745 -1.64051 -0.50879 932.78 
23 2 7.24833 1.54414 -0.170769 914.372 
24 2 7.16798 -1.18994 3.26492 901.003 
25 1 12.8339 -1.2503 -0.467558 923.016 
26 1 12.7805 1.21391 3.15225 909.785 
27 1 15.3968 -1.04677 2.95572 922.915 
28 1 15.8803 1.81088 0.0110291 952.223 
29 2 15.8048 1.7347 2.67829 935.885 
30 2 16.0378 -1.24424 -0.289245 930.216 
31 2 12.7875 1.59605 -0.391795 932.698 
32 2 13.1733 -1.44283 2.6173 918.293 
33 1 18.9411 -1.28591 -0.603562 907.488 
34 1 18.7269 1.32287 2.60478 941.909 
35 1 21.7253 -1.59508 2.65709 915.916 
36 1 21.617 1.13578 -0.0195534 939.463 
37 2 21.8737 1.73843 2.71313 933.67 
38 2 21.7501 -1.5364 0.0530676 926.744 
39 2 18.6971 1.28384 -0.190515 935.672 
40 2 18.8071 -1.84142 2.83553 928.495 
41 1 24.451 -1.76987 0.336604 939.165 
42 1 25.1812 1.83021 2.96091 954.356 
43 1 27.6395 -1.59335 2.82677 950.354 
44 1 27.1889 1.16085 -0.161206 959.332 
45 2 27.72 0.856113 3.0561 942.09 
46 2 27.3987 -1.50372 -0.0160435 930.439 
47 2 24.8401 0.991181 -0.407814 939.863 
48 2 24.272 -1.94222 2.88932 941.65 
49 1 30.8026 -1.856 0.151151 958.197 
50 1 30.3231 1.3464 3.3348 953.125 
51 1 33.2169 -1.71314 3.19551 936.287 
52 1 33.3732 1.0432 -0.315329 951.705 
53 2 33.2059 1.15656 3.0837 945.824 
54 2 33.3102 -1.98251 0.0666152 982.326 
55 2 30.8635 1.15053 -0.730375 943.755 
56 2 30.6226 -1.6935 3.02609 934.936 
57 1 36.3442 -1.76065 0.25155 965.424 
58 1 35.8909 1.76202 2.47338 963.312 
59 1 39.2685 -1.03346 2.50057 961.482 
60 1 38.9822 1.55967 -0.605026 951.463 
61 2 38.678 1.39485 2.0347 967.021 
62 2 39.2571 -1.6173 -0.333603 982.338 
63 2 36.0576 0.963421 -0.314439 964.924 
64 2 36.2845 -1.66057 3.1498 944.071 
65 1 42.0885 -1.84166 -0.199297 974.353 
66 1 41.6265 1.75623 2.15466 991.827 
67 1 44.6934 -1.51953 2.64318 963.741 
68 1 44.9431 1.1187 -0.318099 968.039 
69 2 45.1716 1.92306 2.70154 957.25 
70 2 44.9821 -1.52944 -0.154624 967.151 
71 2 41.7868 1.85553 -0.745568 963.913 
72 2 42.1073 -1.13049 2.65575 972.617 
73 1 47.9032 -1.4834 -0.430691 953.341 
74 1 47.963 1.53905 2.05824 970.75 
75 1 50.9019 -1.51781 2.9246 961.936 
76 1 50.6904 1.40174 -0.74916 958.77 
77 2 50.9591 1.82013 2.9186 996.996 
78 2 50.3355 -1.17319 -0.0402927 962.19 
79 2 48.0226 1.39371 -0.383016 969.589 
80 2 47.5696 -1.43678 2.80196 967.495 
81 1 54.0262 -1.85593 0.260225 994.306 
82 1 53.4249 1.15116 2.88963 1011.96 
83 1 56.8497 -1.47169 2.47727 1002.45 
84 1 57.1534 1.14222 -0.408908 978.169 
85 2 56.6365 1.371 2.04852 973.494 
86 2 56.8541 -2.13286 0.0980345 995.218 
87 2 53.4211 0.725559 0.0865835 990.596 
88 2 53.513 -1.41292 2.8718 981.513 
89 1 59.2555 -1.58761 0.140519 976.735 
90 1 59.8715 1.43785 2.28241 987.95 
91 1 62.4958 -1.56921 2.99974 976.727 
92 1 62.3373 0.789562 -0.613865 993.45 
93 2 62.6389 0.857882 2.23958 975.575 
94 2 62.427 -2.11602 -0.220827 977.393 
95 2 59.8714 1.4393 -0.248937 978.091 
96 2 59.3203 -1.26575 3.21753 985.952 
97 1 65.1148 -1.68473 -0.135648 980.465 
98 1 65.2187 1.89334 2.41041 998.393 
99 1 68.1699 -1.98585 2.16428 999.305 
100 1 67.8905 1.50413 -0.00737875 1014.24 
101 2 67.9722 1.89999 2.53984 1005.85 
102 2 67.7549 -1.85866 -0.373168 995.695 
103 2 65.2491 1.23955 -0.561559 996.606 
104 2 65.5852 40.0413 2.43669 987.832 
105 1 70.7077 -1.46541 -0.620061 999.068 
106 1 70.6998 1.72451 2.46262 990.79 
107 1 74.0057 -1.08918 2.57282 1007.32 
108 1 73.1737 1.84197 -0.66431 1005.11 
109 2 73.597 1.86393 3.14102 1002.42 
110 2 73.761 -1.54378 -0.498495 1009.03 
111 2 70.5183 1.55669 -0.373547 1008.61 
112 2 70.894 -1.2443 2.72672 998.512 
113 1 76.4063 -1.29289 -0.350992 1009.06 
114 1 76.4575 1.34133 2.90619 1017.92 
115 1 79.6257 -0.980619 2.81537 1013.86 
116 1 79.6932 1.39246 -0.00200362 1014.28 
117 2 79.9324 1.65291 2.73161 1014.19 
118 2 79.4154 -1.47268 -0.343307 1033.35 
119 2 76.5798 2.00591 0.0767242 1018.45 
120 2 76.5531 -1.37128 2.83229 1027.19 
121 1 82.8827 -1.9607 0.087164 1035.9 
122 1 82.4065 1.55123 3.01521 1005.19 
123 1 85.1314 -1.12301 2.85521 1042.67 
124 1 85.9163 1.66859 -0.407715 1008.71 
125 2 85.2658 1.36776 3.10346 1030.83 
126 2 85.1853 -1.35536 -0.41794 1025.68 
127 2 82.9456 1.36007 -0.158072 1027.83 
128 2 82.3603 -1.47311 3.01602 1008.13 
129 1 88.6413 -1.31538 -0.453036 1038.9 
130 1 88.2166 1.83879 3.47492 1042.13 
131 1 91.4015 -0.707243 2.6595 1041.93 
132 1 91.3586 1.54012 -0.336481 1032.27 
133 2 91.2847 2.00163 2.53323 1027.58 
134 2 91.2984 -1.39332 -0.495241 1017.08 
135 2 88.5705 1.61552 -0.699967 1040.82 
136 2 88.655 -0.672921 2.34209 1008.89 
137 1 94.1226 -1.32045 -0.261915 1019.67 
138 1 93.9098 1.83954 2.83931 1047.63 
139 1 96.4621 -1.38694 2.99663 1035.71 
140 1 96.618 1.56778 0.259696 1034.13 
141 2 96.5581 1.61371 2.92899 1051.52 
142 2 96.9378 -1.63615 -0.290278 1040.34 
143 2 93.9572 1.38237 -0.915851 1030.7 
144 2 93.8782 -0.801177 2.45784 1043.89 
145 1 99.4651 -1.89686 0.428809 1034.54 
146 1 99.8122 1.72125 2.93765 1042.63 
147 1 102.91 -1.79894 2.5099 1068.1 
148 1 102.097 1.46326 -0.144198 1032.9 
149 2 102.569 2.00537 2.28542 1049.25 
150 2 102.576 -1.55417 -0.0250588 1049.33 
151 2 99.37 1.4722 0.210483 1053.69 
152 2 99.697 40.0645 2.67506 1049.11 
153 1 105.291 -1.26097 -0.558341 1062.6 
154 1 105.421 2.01443 2.34984 1051.41 
155 1 108.796 -1.74863 2.36265 1062.99 
156 1 107.928 1.57099 -0.467921 1045.67 
157 2 108.369 1.43921 2.06923 1063.16 
158 2 108.258 -1.3751 -1.10537 1056.7 
159 2 105.3 1.61852 -0.171329 1065.6 
160 2 106.197 -1.91792 2.09119 1064.16 
161 1 111.744 -1.05963 -0.677584 1059.7 
162 1 112.153 2.16938 2.54723 1060.13 
163 1 114.329 -1.84516 1.72509 1057.32 
164 1 114.633 1.33852 -0.593351 1058.03 
165 2 114.74 1.16222 2.71348 1074.82 
166 2 114.678 -1.17762 -1.31406 1050.7 
167 2 112.027 1.8306 -0.394435 1066.9 
168 2 111.794 -1.6964 2.00121 1089.05 
169 1 117.615 -1.10187 -0.773173 1063.97 
170 1 117.297 1.24433 2.49687 1053.49 
171 1 120.26 -1.66961 2.33761 1093.22 
172 1 120.205 1.71105 -0.573401 1078.6 
173 2 120.469 1.64531 2.05794 1075.45 
174 2 120.092 -1.37095 -0.447187 1077.79 
175 2 117.364 1.76376 -0.560327 1047.4 
176 2 117.362 -1.84288 2.28611 1069.7 
177 1 122.756 -1.53811 -0.872289 1082.02 
178 1 123.001 1.32384 2.28201 1066.84 
179 1 125.983 -1.68049 2.23431 1072 
180 1 126.159 1.5231 -0.289333 1076.59 
181 2 126.063 0.798628 2.30772 1080.54 
182 2 126.167 -1.26057 -0.526982 1072.91 
183 2 122.78 1.54809 -0.969944 1070.61 
184 2 123.065 -1.6338 2.37997 1097.47 
185 1 129.171 -1.10174 -0.432447 1086.39 
186 1 128.924 1.79124 2.42533 1078.95 
187 1 132.156 -0.974909 2.13023 1073.85 
188 1 132.096 2.02212 -0.788562 1083.03 
189 2 131.839 1.92202 2.02677 1100.83 
190 2 131.817 -1.37097 -0.741939 1084.5 
191 2 128.928 1.3615 -0.340632 1078.71 
192 2 129.526 -0.9949 2.09329 1073.36 
193 1 134.79 -1.90009 -0.784955 1084.29 
194 1 134.75 1.78087 2.41079 1087.62 
195 1 137.321 40.114 2.33292 1091.86 
196 1 138.077 1.75924 -0.572773 1115.6 
197 2 137.652 1.39768 2.25131 1111.26 
198 2 137.349 -2.13929 -0.564707 1116 
199 2 134.53 1.69964 -0.259607 1108.75 
200 2 134.715 -1.53481 2.42189 1100.17 
201 1 140.669 -1.51896 -0.590604 1109.42 
202 1 141.2 1.60002 2.39733 1106.29 
203 1 143.702 -1.51762 2.38088 1085.48 
204 1 144.164 1.53579 -0.354259 1116.09 
205 2 143.943 1.54226 2.07689 1120.6 
206 2 143.891 -1.38881 -0.273061 1111.66 
207 2 140.542 1.61863 -0.298877 1088.92 
208 2 141.33 -1.65173 2.02121 1082.56 
209 1 146.644 -1.98084 -0.428989 1122.83 
210 1 146.308 1.1961 2.45148 1088.71 
211 1 149.317 -1.97551 2.61164 1109.34 
212 1 149.098 1.79062 -0.606912 1087.49 
213 2 149.375 1.55284 2.42073 1124.02 
214 2 149.188 -1.41308 -0.81931 1071.16 
215 2 146.678 1.27041 -0.500725 1101.13 
216 2 146.511 -2.09124 2.32441 1097.66 
217 1 151.805 -1.40965 -0.166338 1090.69 
218 1 152.24 1.57626 2.21447 1088.05 
219 1 154.776 -1.53307 2.65412 1079.85 
220 1 154.979 1.41273 -0.346471 1081.94 
221 2 154.795 1.76884 2.5615 1068.16 
222 2 154.878 -1.40944 -0.147073 1093.79 
223 2 152.025 0.924164 -0.158833 1084.43 
224 2 152.159 -1.81995 2.83098 1090.15 
225 1 157.501 -1.70126 -0.646048 1074.99 
226 1 157.906 1.28932 2.08812 1086.04 
227 1 160.258 -0.83874 2.92473 1087.44 
228 1 160.755 1.58123 -0.894645 1092.1 
229 2 160.908 1.64629 2.38719 1073.22 
230 2 161.172 -1.92556 -0.716451 1080.57 
231 2 157.527 1.6337 -0.599588 1083.2 
232 2 158.057 -1.41365 1.95938 1085.68 
233 1 163.474 -1.50134 -0.234189 1091.29 
234 1 163.297 2.49139 3.01318 1083.07 
235 1 165.93 -1.19797 2.92033 1057.73 
236 1 165.999 1.90203 -0.0865059 1059.55 
237 2 166.105 1.96869 2.65445 1057.77 
238 2 166.813 -1.19391 -0.571072 1076.45 
239 2 163.588 1.61798 -1.12701 1036.75 
240 2 163.48 -1.28283 2.64381 1089.51 
241 1 168.938 -0.664811 -1.48825 1070.14 
242 1 169.368 1.20098 2.61723 1058.12 
243 1 172.748 -1.2348 1.99041 1060.89 
244 1 172.461 1.80642 -0.594909 1060.76 
245 2 172.268 1.13356 2.41683 1052.66 
246 2 173.311 -1.35826 -0.915625 1040.54 
247 2 169.99 1.5979 -1.04018 1043.35 
248 2 168.629 -1.09214 2.42297 1052.06 
249 1 175.71 -0.953311 -0.726946 1068.04 
250 1 175.097 1.57687 2.13693 1056.01 
251 1 178.16 -1.37989 2.34227 1043.29 
252 1 178.292 2.03574 -0.63037 1064.22 
253 2 178.635 1.70082 2.63041 1064.42 
254 2 178.148 -0.721982 -1.20547 1048.46 
255 2 175.197 1.72483 -0.826986 1044.1 
256 2 175.637 -0.801208 2.06129 1065.34 
257 1 181.656 -1.08224 -0.898753 1044.87 
258 1 181.398 1.04857 2.62397 1026.5 
259 1 184.072 -1.30726 2.46362 1009.43 
260 1 184.18 1.51338 -0.195653 1005.28 
261 2 184.249 1.30118 2.35751 1012.74 
262 2 184.08 40.0904 -0.520485 1049.05 
263 2 181.121 1.47528 -0.471664 1021.45 
264 2 181.247 -1.45611 2.28855 1020.44 
265 1 187.616 -1.18065 -0.0441624 1037.29 
266 1 187.743 1.41667 2.5647 1029.76 
267 1 190.293 -1.23446 2.95232 1013.53 
268 1 190.064 1.53451 -0.471355 1044.91 
269 2 190.661 1.26362 2.97823 1034.63 
270 2 190.022 -1.08574 -0.321979 1027.65 
271 2 187.271 1.42102 -0.146771 1017.15 
272 2 187.353 -1.66585 2.49809 1030.86 
273 1 193.144 -1.63146 -0.280676 1021.85 
274 1 193.287 2.06149 2.60881 1052.98 
275 1 195.777 -1.62946 1.92752 1010.42 
276 1 195.822 1.50059 -0.623702 999.878 
277 2 195.872 1.76125 2.21541 1010.15 
278 2 196.2 -1.19244 -0.540164 1027.27 
279 2 192.635 1.50901 -0.795049 1009.5 
280 2 193.44 -0.696154 2.30065 1044.26 
281 1 198.598 -1.93245 -0.884149 1029.86 
282 1 198.653 1.09515 1.94581 1012.06 
283 1 201.744 -1.70263 2.09955 1002.16 
284 1 201.938 1.65875 -0.543236 996.375 
285 2 201.8 0.634124 1.53995 1012.14 
286 2 201.252 -1.77903 -0.932494 1008.38 
287 2 198.814 1.79117 -0.640231 1018.53 
288 2 198.416 -1.43469 2.41155 1009.83 
289 1 204.106 -1.18476 -0.820851 1010.6 
290 1 204.903 1.73109 2.11975 1017.47 
291 1 207.309 -1.7281 2.31737 1014.24 
292 1 207.709 1.46708 -1.11293 1007.71 
293 2 207.636 1.75512 2.60452 1018.16 
294 2 207.207 -1.78225 -1.21813 1005.81 
295 2 204.951 1.25626 -0.809295 1007.66 
296 2 204.813 -1.37831 2.28462 1031.72 
297 1 210.514 -1.46841 -0.723384 1017.67 
298 1 210.225 1.51935 3.01809 1008.67 
299 1 213.506 -0.966098 2.35721 1014.01 
300 1 213.36 1.01699 -0.63478 997.358 
301 2 212.693 1.35059 2.62833 1004.1 
302 2 213.122 -1.52302 -0.343883 992.328 
303 2 210.264 1.21388 -1.28413 991.279 
304 2 209.82 -2.06792 2.07385 997.17 
305 1 216.417 -1.69649 -0.89096 992.632 
306 1 216.193 1.59269 2.13855 999.231 
307 1 219.189 -1.47444 2.18563 1003.74 
308 1 218.821 1.16073 -0.770773 990.011 
309 2 218.539 1.18261 2.33754 991.271 
310 2 219.083 -2.01229 -0.580876 987.226 
311 2 216.19 1.03839 -0.67223 981.037 
312 2 216.179 -1.63572 2.05448 1018.53 
313 1 221.964 -1.68979 -1.47199 1002.84 
314 1 221.875 1.29619 3.05326 1001.42 
315 1 224.512 -1.67621 2.8253 988.863 
316 1 224.74 1.08617 -0.604457 990.103 
317 2 224.469 1.41378 2.45845 978.458 
318 2 224.202 -1.42775 -0.342026 993.914 
319 2 221.623 1.35443 -0.699263 982.729 
320 2 221.839 -1.50976 3.28103 969.91 
321 1 227.652 -1.34287 -0.68019 967.634 
322 1 227.263 1.2174 1.97191 981.779 
323 1 230.273 -1.19724 2.31643 967.164 
324 1 230.373 1.60396 -0.435204 978.237 
325 2 230.042 1.98253 2.40157 957.985 
326 2 230.2 -1.53029 -0.300055 975.39 
327 2 227.636 1.12676 -0.456984 984.942 
328 2 227.161 -1.41168 2.36163 994.621 
329 1 232.635 -2.0359 -0.42232 971.367 
330 1 232.93 1.18086 2.08926 962.521 
331 1 236.108 -1.52626 2.39143 962.68 
332 1 235.677 1.36941 -0.777872 976.298 
333 2 235.573 1.2622 1.92765 945.197 
334 2 235.981 -1.5695 -0.547613 962.564 
335 2 233.052 1.18673 -0.424447 968.313 
336 2 232.869 -1.86616 2.44007 962.114 
337 1 238.616 -0.942172 -0.777397 966.811 
338 1 238.42 1.61795 2.17963 961.374 
339 1 241.798 -1.189 2.66453 947.061 
340 1 241.709 1.47789 -0.414925 966.833 
341 2 241.961 1.83607 2.16426 971.317 
342 2 241.852 -1.32982 -0.74184 971.602 
343 2 239.079 1.6143 -0.7306 965.12 
344 2 238.756 -1.37844 2.56769 967.002 
345 1 244.519 -1.01712 -0.886737 965.119 
346 1 244.292 2.17384 2.08855 949.984 
347 1 247.177 -1.03578 2.48077 941.501 
348 1 247.603 1.78076 -0.206847 946.573 
349 2 247.171 1.81106 2.52075 981.538 
350 2 247.143 -1.08379 -0.0736929 944.094 
351 2 245.202 2.46128 -0.890369 949.615 
352 2 244.186 -1.19509 2.78059 970.142 
353 1 250.482 -1.06155 -0.693289 954.246 
354 1 250.47 2.01163 2.26075 957.614 
355 1 253.234 -0.875399 2.82813 962.513 
356 1 253.925 1.66473 -0.24184 927.966 
357 2 253.731 2.02338 2.45642 963.168 
358 2 253.395 -1.2211 -0.427434 938.111 
359 2 250.756 1.46452 -0.411771 939.991 
360 2 250.426 -1.38119 2.60215 943.483 
361 1 256.401 -1.44431 0.0373476 927.979 
362 1 256.585 2.15142 2.84594 940.419 
363 1 259.678 -1.47221 2.77653 936.33 
364 1 258.757 2.46456 0.251024 938.222 
365 2 259.212 2.22543 2.52503 923.594 
366 2 259.379 -1.26818 -0.567987 918.711 
367 2 256.439 1.19771 -0.060621 945.434 
368 2 256.144 -1.288 2.91487 948.859 
369 1 262.629 -1.22003 -0.972582 920.984 
370 1 262.159 2.1853 2.49491 963.574 
371 1 264.567 -0.380016 2.6886 940.866 
372 1 265.058 2.13319 -0.612846 931.398 
373 2 265.624 2.27358 2.55277 924.109 
374 2 265.237 -0.812703 -0.236987 927.875 
375 2 262.309 1.93771 -0.0448331 953.794 
376 2 262.27 -0.880234 3.35746 951.694 
377 1 267.912 -0.792661 -0.880222 910.415 
378 1 268.004 2.12582 3.01541 935.926 
379 1 270.169 -1.11574 2.69906 940.758 
380 1 270.643 2.03507 -0.427909 954.671 
381 2 270.52 2.26714 2.48994 927.209 
382 2 270.558 -0.820179 -0.22813 919.134 
383 2 267.857 1.91711 -0.505028 932.069 
384 2 267.837 -0.886516 3.06206 944.198 
385 1 273.227 -1.05284 -0.662762 920.919 
386 1 273.415 1.73754 2.85118 927.845 
387 1 276.717 -0.602933 2.54324 915.771 
388 1 276.325 1.84356 -0.672483 928.459 
389 2 276.309 1.89173 2.01895 911.333 
390 2 276.496 -0.763947 -0.550017 924.132 
391 2 273.384 1.52994 -1.03878 938.852 
392 2 273.653 -0.992903 2.34055 912.479 
393 1 278.964 -0.519162 -0.325731 919.25 
394 1 279.606 1.84893 3.31719 912.345 
395 1 281.849 -1.45858 2.72661 928.061 
396 1 282.054 1.7442 -1.03511 901.852 
397 2 282.33 1.82262 2.74859 896.644 
398 2 282.403 -0.933079 -0.956263 899.926 
399 2 279.308 2.08702 -0.317185 937.231 
400 2 279.164 -1.07233 2.60155 910.701 
401 1 -4.30804 4.60473 -0.79994 926.561 
402 1 -4.57585 7.9651 2.81883 899.937 
403 1 -1.61474 4.76132 2.74792 874.877 
404 1 -1.74122 7.51317 -0.533181 909.973 
405 2 -1.29904 7.87971 2.50885 909.685 
406 2 -1.86411 4.42487 -0.730995 893.378 
407 2 -4.39806 8.32989 -0.554169 909.124 
408 2 -4.57029 5.14453 2.67667 883.251 
409 1 1.09126 5.07013 -0.411136 910.049 
410 1 1.62997 7.65614 2.84585 885.781 
411 1 4.45274 4.92421 2.8417 911.121 
412 1 4.26295 7.5509 -0.382354 928.183 
413 2 4.37378 7.71573 2.2253 914.165 
414 2 4.77398 4.43238 -0.310577 906.395 
415 2 0.740991 7.78328 -0.536188 894.072 
416 2 1.01401 5.09842 2.21292 914.111 
417 1 7.77354 4.38 -0.560731 912.32 
418 1 7.00849 7.91157 2.7614 915.843 
419 1 10.2112 5.17673 3.26382 905.535 
420 1 9.94943 7.93067 -0.0645315 922.302 
421 2 9.85146 8.01217 2.85427 929.021 
422 2 10.2783 5.19349 -0.679307 919.504 
423 2 7.00508 7.61467 -0.324453 919.863 
424 2 7.29525 4.7984 2.91789 908.477 
425 1 13.1986 4.6176 -0.3095 919.51 
426 1 12.3784 7.7229 2.86052 937.293 
427 1 16.119 4.95739 2.74316 924.768 
428 1 15.9672 7.65016 -0.455803 934.136 
429 2 16.0285 7.98952 2.70168 899.771 
430 2 15.9497 4.70721 -0.0536478 940.877 
431 2 13.0972 7.5774 -0.132569 933.715 
432 2 12.6818 4.68952 2.8432 941.602 
433 1 18.3186 4.06934 -0.579448 952.547 
434 1 18.7943 7.8303 2.4926 952.264 
435 1 21.6347 4.33373 2.51132 942.03 
436 1 21.6749 7.72154 -0.633609 936.555 
437 2 21.9232 7.46483 3.29782 952.888 
438 2 22.0023 4.69354 -0.315458 943.201 
439 2 18.4255 8.2784 -0.162859 932.146 
440 2 18.569 4.41036 2.12479 948.057 
441 1 24.4535 3.93939 0.0596716 928.095 
442 1 24.6944 6.96571 2.99971 941.679 
443 1 27.5574 4.14967 2.95854 965.906 
444 1 27.0973 7.61392 -0.305364 937.534 
445 2 27.5904 7.49507 2.83937 963.909 
446 2 27.7005 4.02223 -0.303305 956.609 
447 2 24.7257 6.80082 -0.0468336 931.775 
448 2 24.8115 4.24948 3.06554 960.966 
449 1 30.2989 4.26595 -0.50621 923.586 
450 1 30.1863 7.59056 1.87769 941.419 
451 1 33.1128 4.52717 2.42586 950.612 
452 1 33.2058 7.94838 -0.360768 942.721 
453 2 32.9059 7.82539 2.47844 942.34 
454 2 33.3897 4.49871 -0.591837 965.491 
455 2 30.2921 7.16681 -0.522839 953.422 
456 2 30.3306 4.51221 2.64765 955.884 
457 1 35.9427 4.71725 -0.343566 972.041 
458 1 36.1899 7.10344 2.74869 952.605 
459 1 39.0256 4.88581 2.0624 961.387 
460 1 39.2688 7.22403 -0.772886 947.294 
461 2 38.8951 7.33274 2.90303 968.717 
462 2 39.0044 4.18197 -0.387063 963.998 
463 2 36.766 7.0081 -0.029732 961.433 
464 2 35.6197 4.53567 2.58303 973.782 
465 1 41.642 4.62266 -0.735478 944.499 
466 1 41.7908 7.72124 2.82904 960.037 
467 1 45.2024 4.7088 2.65122 979.883 
468 1 44.3851 6.96754 -0.137574 976.67 
469 2 44.5559 7.48559 2.8781 970.262 
470 2 44.8243 4.42354 -0.187352 940.242 
471 2 41.8037 7.39996 -0.425185 952.614 
472 2 41.6492 4.42306 2.23913 964.248 
473 1 47.6005 4.53363 -0.262382 942.417 
474 1 47.6908 7.60138 2.71338 953.356 
475 1 50.5887 4.49382 2.75542 991.092 
476 1 50.6905 7.20565 -0.170548 961.709 
477 2 50.8645 7.82666 2.4564 957.206 
478 2 50.7171 4.1511 -0.516717 966.132 
479 2 47.7646 7.18643 -0.262895 966.06 
480 2 47.7984 4.7678 2.57365 968.284 
481 1 53.2753 4.02466 0.0473475 963.644 
482 1 53.6612 6.84268 2.63686 953.466 
483 1 57.0415 4.09577 2.34921 998.799 
484 1 56.99 6.9807 -0.483808 961.914 
485 2 57.4165 7.75037 2.5557 979.173 
486 2 57.0124 4.50231 -0.230829 957.921 
487 2 53.7167 6.81768 -0.538792 989.274 
488 2 53.9426 4.29346 2.29182 989.843 
489 1 60.2299 4.71403 -0.227733 991.818 
490 1 60.0007 7.61792 2.88355 981.852 
491 1 62.9446 5.01257 2.89863 993.298 
492 1 62.8633 7.53465 -0.177169 986.547 
493 2 62.4998 7.83212 2.83655 989.433 
494 2 62.5558 4.83592 -0.0711347 983.917 
495 2 60.1975 7.14017 -0.880252 969.947 
496 2 60.442 4.56772 2.87309 986.563 
497 1 65.2874 4.65729 -1.21642 986.644 
498 1 65.4784 7.71217 2.42958 999.03 
499 1 67.8967 5.41209 2.55026 1008.17 
500 1 68.3113 7.5623 -0.659454 998.316 
501 2 68.1104 7.91771 2.21032 971.915 
502 2 68.4254 4.9088 -0.332648 986.293 
503 2 65.385 7.33661 -0.106446 1000.76 
504 2 65.6406 5.12478 2.85878 986.524 
505 1 70.8184 4.55174 0.012672 983.03 
506 1 71.4389 8.16062 2.59462 985.634 
507 1 74.068 4.71229 2.57031 1015.64 
508 1 74.3125 7.38049 -0.525642 990.146 
509 2 74.1995 7.27471 2.12525 1000.85 
510 2 73.8482 4.63902 -0.640949 1011.93 
511 2 71.0462 7.67638 -0.444146 990.881 
512 2 71.1745 4.56793 2.43413 1022.44 
513 1 76.813 3.97805 -1.00149 1005.71 
514 1 77.1283 7.70177 2.79571 1024.18 
515 1 79.4089 4.65564 2.09623 994.497 
516 1 79.7023 7.70353 -0.465687 995.482 
517 2 79.4222 7.35221 2.35876 1015.18 
518 2 80.0176 4.0372 -0.588863 970.822 
519 2 77.128 8.271 -0.477744 1017.51 
520 2 76.8568 4.97205 2.73615 1017.78 
521 1 82.7714 4.29891 -0.197044 999.67 
522 1 83.118 7.2385 2.85488 1029.06 
523 1 85.3771 4.63066 2.32975 1025.58 
524 1 85.1426 7.27003 -1.03966 1037.66 
525 2 85.6041 7.63883 2.74873 1014.26 
526 2 85.6703 4.72596 -0.354065 1008.53 
527 2 82.7116 7.08037 -0.455975 1018.01 
528 2 82.7148 4.47711 2.48289 993.247 
529 1 88.3258 4.66415 -0.752036 1057.62 
530 1 88.3834 7.81822 3.16391 1033.32 
531 1 91.4564 4.86004 2.12292 1031.48 
532 1 91.3301 7.36612 -0.724264 1033.44 
533 2 91.2625 7.44458 2.41929 1041.6 
534 2 91.929 4.38928 -0.400945 1022.16 
535 2 88.6937 8.20709 -0.928982 1023.59 
536 2 88.4157 4.40354 2.81289 1048.62 
537 1 94.6592 4.24117 -0.314381 1052.71 
538 1 94.8403 7.71075 2.678 1010.88 
539 1 97.2894 4.56137 3.19874 1036.13 
540 1 97.183 8.18523 -0.523057 1046.24 
541 2 97.5831 7.2087 2.53881 1044.86 
542 2 97.0504 4.37695 0.0601128 1040.06 
543 2 94.2714 8.1468 -0.252063 1029.21 
544 2 94.3498 4.16015 2.52639 1026.84 
545 1 99.8773 4.63409 -0.27812 1036.1 
546 1 100.314 7.25705 2.02468 1030.53 
547 1 103.079 4.79342 2.57357 1058.7 
548 1 103.415 7.23701 -0.970221 1064.16 
549 2 102.756 7.45699 2.57284 1057.72 
550 2 102.528 4.675 -0.128329 1070.93 
551 2 99.5676 6.91993 -0.84089 1030.69 
552 2 100.114 4.37541 3.35979 1044.14 
553 1 105.556 4.52777 -0.904618 1072.8 
554 1 105.857 7.6648 2.70907 1043.52 
555 1 109.063 4.52787 2.49133 1058.37 
556 1 108.69 7.32151 -0.861242 1053.72 
557 2 109.189 7.14617 2.77547 1067.01 
558 2 108.691 4.37217 -0.573211 1053.46 
559 2 105.706 7.20871 -1.01439 1047.34 
560 2 105.708 5.22056 2.88484 1070.8 
561 1 111.58 4.47908 -0.174954 1062.01 
562 1 111.686 7.5695 2.93841 1051.9 
563 1 114.65 5.20144 2.66764 1061.1 
564 1 114.229 7.21939 -0.499641 1063.26 
565 2 114.625 7.59926 2.48563 1073.66 
566 2 114.25 4.80199 -1.0028 1059.68 
567 2 111.443 7.36143 -0.302657 1057.81 
568 2 111.839 4.73091 2.76684 1047.58 
569 1 117.963 4.98944 -0.988467 1054.77 
570 1 117.113 7.44476 2.2266 1070.61 
571 1 120.804 4.37819 2.34068 1060.98 
572 1 119.886 7.89842 -0.759181 1046.03 
573 2 120.147 8.24098 2.33257 1045.6 
574 2 120.527 5.07233 -0.783425 1064.34 
575 2 117.261 7.55272 -0.722262 1083.26 
576 2 118.01 4.77966 2.30587 1066.45 
577 1 122.844 4.10936 -0.840544 1063.54 
578 1 122.737 7.778 1.76741 1072.89 
579 1 125.704 4.59054 2.08048 1060.8 
580 1 125.922 8.20037 -0.8838 1072.8 
581 2 125.685 7.76614 2.54682 1067.84 
582 2 126.059 3.99782 -0.623296 1059.22 
583 2 123.115 7.90759 -0.880977 1056.39 
584 2 123.303 4.16979 2.50262 1066.59 
585 1 128.715 4.31532 -0.849837 1079.75 
586 1 128.69 7.64353 2.38115 1089.25 
587 1 131.514 4.5439 2.67099 1071.56 
588 1 131.999 7.42614 -0.347798 1069.06 
589 2 131.624 7.37384 2.82478 1081.73 
590 2 132.33 4.66212 -0.792216 1101.04 
591 2 128.801 7.78212 -0.540504 1069.92 
592 2 128.691 4.54847 2.0968 1074.11 
593 1 134.688 4.73016 -0.502679 1080.01 
594 1 134.552 7.6148 2.25818 1105.72 
595 1 137.459 4.9294 2.19525 1098.24 
596 1 138.229 7.67663 -0.657706 1092.1 
597 2 137.399 7.74537 1.76569 1112.19 
598 2 138.087 4.96647 -0.835308 1105.58 
599 2 134.564 7.70884 -0.448328 1083.75 
600 2 134.61 4.44854 2.34893 1097.53 
601 1 140.763 4.69624 -0.778629 1109.49 
602 1 140.489 7.4999 2.0281 1097.63 
603 1 143.227 4.61597 2.74119 1111.48 
604 1 143.307 7.84314 -0.53484 1116.42 
605 2 143.584 7.49378 2.36127 1129.54 
606 2 143.32 4.22231 -1.53946 1121.42 
607 2 140.725 7.60005 -0.802954 1102.78 
608 2 139.864 4.69058 1.95117 1114.07 
609 1 146.533 5.17805 -0.846396 1099.22 
610 1 146.861 7.92787 2.3094 1123.59 
611 1 149.313 3.99204 2.42587 1117.96 
612 1 149.389 7.72886 -0.58977 1076.01 
613 2 149.493 7.48273 2.49485 1109.51 
614 2 149.559 4.50569 -0.694703 1095.83 
615 2 146.612 8.03833 -1.0778 1087.3 
616 2 145.904 5.23408 1.65192 1106.4 
617 1 152.063 4.63815 -0.598052 1082.93 
618 1 151.929 7.78222 2.62653 1119.01 
619 1 154.835 4.30901 2.81784 1058.98 
620 1 154.489 7.41768 -0.578566 1093.23 
621 2 155.229 8.11812 2.42738 1111.16 
622 2 154.459 4.66438 -0.55385 1071.12 
623 2 152.088 7.74256 -0.893403 1098.26 
624 2 152.088 4.67066 2.50764 1082.96 
625 1 157.764 4.99093 -0.354811 1072.41 
626 1 157.664 7.76796 2.40915 1065.67 
627 1 160.672 4.57231 2.0831 1075.91 
628 1 160.404 7.71021 -0.927574 1078.08 
629 2 160.211 7.60115 1.88941 1060.64 
630 2 160.439 5.18021 -0.70083 1078.43 
631 2 157.469 7.64434 -0.569631 1077.59 
632 2 157.839 4.74705 2.45683 1054.77 
633 1 164.273 4.5321 -1.13255 1067.7 
634 1 163.949 7.63175 1.91132 1091.99 
635 1 166.558 4.77641 2.338 1081.09 
636 1 166.944 7.28111 -0.652984 1072.38 
637 2 166.636 7.56116 2.15783 1063.48 
638 2 166.637 4.55463 -0.323568 1086.87 
639 2 163.784 7.67972 -0.86495 1084.3 
640 2 163.539 4.52262 1.64337 1069.23 
641 1 169.713 4.61085 -0.851244 1060.25 
642 1 169.935 7.84472 2.236 1068.8 
643 1 172.475 4.21765 2.28276 1065.19 
644 1 173.345 7.00746 -0.0843776 1055.6 
645 2 172.695 7.13154 2.45793 1065.29 
646 2 172.766 4.44096 -0.504117 1078.94 
647 2 170.229 7.51553 -0.603478 1041.34 
648 2 169.296 4.77366 2.20728 1057.14 
649 1 175.719 4.35059 -0.534465 1055.46 
650 1 175.494 6.97065 2.56936 1027.53 
651 1 178.248 4.40058 2.51418 1056.13 
652 1 178.583 7.33303 -1.15503 1057.81 
653 2 178.124 6.96192 2.25803 1066.89 
654 2 178.244 4.30271 -1.2171 1039.86 
655 2 175.778 7.7666 -0.349011 1065.26 
656 2 175.306 4.30998 2.35172 1047.06 
657 1 181.318 4.06313 -0.539059 1016.55 
658 1 180.889 7.63415 1.9145 999.741 
659 1 184.034 4.25324 2.14077 1038.28 
660 1 184.423 7.10289 -0.245914 1034.61 
661 2 184.792 7.15375 2.45712 1014.57 
662 2 184.252 4.28128 -0.574966 1027.11 
663 2 181.381 7.60844 -0.663265 1032.16 
664 2 181.296 4.78163 2.20333 1028.02 
665 1 186.896 4.33742 0.0297928 1024.05 
666 1 187.244 7.34034 2.76134 1045.34 
667 1 190.257 4.54949 2.90265 995.7 
668 1 189.521 7.60831 -0.706639 992.374 
669 2 189.853 7.50843 2.56721 1026.72 
670 2 189.892 4.23199 -0.705225 1019.25 
671 2 186.795 7.68747 -1.01191 1024.6 
672 2 187.243 4.42273 2.73763 1034.74 
673 1 193.321 4.68752 -0.540291 994.134 
674 1 192.68 7.59515 2.22155 994.196 
675 1 195.957 4.66509 1.92733 1013.68 
676 1 196.018 8.52397 -0.63967 996.458 
677 2 195.834 7.66052 2.3577 1000.76 
678 2 195.84 4.1786 -0.969244 1017.34 
679 2 193.517 8.14632 -0.48454 995.477 
680 2 193.168 4.47236 2.25844 1010.73 
681 1 198.612 4.47143 -0.567581 990.086 
682 1 198.934 7.87466 2.36407 998.639 
683 1 201.246 4.94404 2.03644 1008.11 
684 1 201.354 7.1749 -0.889138 1009.73 
685 2 201.882 7.63111 2.14531 999.039 
686 2 201.268 4.16363 -0.413772 1030.74 
687 2 199.002 7.60301 -0.645286 984.605 
688 2 198.691 5.11123 2.16356 1003.94 
689 1 204.575 4.19639 -0.527028 1017.66 
690 1 204.513 7.30611 2.0634 1025.45 
691 1 208.007 4.35901 2.31578 1012.24 
692 1 207.327 7.13602 -0.568152 1000.42 
693 2 206.994 6.97657 2.3333 995.023 
694 2 207.25 4.24285 -0.524892 992.701 
695 2 204.462 7.05461 -0.985759 989.755 
696 2 204.101 4.36215 2.04648 1024.96 
697 1 210.141 4.99762 -0.576924 996.959 
698 1 210.639 7.95339 2.6512 999.692 
699 1 213.485 4.62514 2.36392 996.757 
700 1 212.849 7.64079 -1.37504 986.229 
701 2 213.373 7.59537 2.39159 990.946 
702 2 212.89 4.937 -0.473664 1001.56 
703 2 209.769 7.26906 -1.18642 1002.76 
704 2 210.634 5.04304 2.50243 1027.89 
705 1 215.241 4.5438 -0.908962 991.712 
706 1 215.92 7.13178 2.02834 993.35 
707 1 218.431 4.07965 2.08803 990.399 
708 1 218.844 7.66366 -1.00664 986.71 
709 2 218.887 7.25377 2.58163 995.531 
710 2 218.535 3.97781 -0.645843 1008.92 
711 2 215.884 7.78613 -0.972773 990.88 
712 2 215.963 4.30843 2.3706 972.777 
713 1 221.208 4.30435 -0.040478 1008.13 
714 1 221.33 8.05035 2.30347 978.855 
715 1 224.332 3.81566 2.04179 982.858 
716 1 223.888 7.78008 -0.725892 975.189 
717 2 223.855 7.76992 2.08023 983.935 
718 2 225.153 4.14669 -0.650782 965.395 
719 2 221.292 7.09666 -0.944399 965.68 
720 2 221.55 4.3205 2.38365 978.978 
721 1 227.478 4.86832 -0.646868 985.838 
722 1 226.441 7.61566 1.87804 961.736 
723 1 230.259 5.22505 2.52964 959.901 
724 1 229.397 7.76493 -0.56085 960.352 
725 2 230.382 7.78703 2.33169 944.401 
726 2 230.243 4.68399 -1.21005 983.804 
727 2 226.826 7.63297 -1.02517 973.699 
728 2 227.294 4.56353 2.31047 962.664 
729 1 232.785 4.57371 -0.938334 985.852 
730 1 233.336 7.94728 2.01521 956.79 