ITEM: TIMESTEP
2000000
ITEM: NUMBER OF ATOMS
8400
ITEM: BOX BOUNDS pp pp pp
-5.9099547646241319e+00 2.8359995476463484e+02
-2.1446273254920634e+00 4.0174627325491812e+01
-1.7757301867509554e+00 1.6325730186751606e+01
ITEM: ATOMS id type x y z f_TolTpA 
1 1 -3.89743 -1.53879 -0.26776 917.961 
2 1 -4.13187 1.82104 2.92731 905.616 
3 1 -1.14683 -1.34219 2.67869 897.463 
4 1 -0.931208 1.65737 -0.50221 890.325 
5 2 -1.02792 1.98505 2.51538 908.679 
6 2 -1.05417 -1.25269 -0.704362 912.632 
7 2 -3.3105 1.66396 -0.358337 921.157 
8 2 -3.9504 -0.637606 2.91064 928.92 
9 1 1.64537 -1.29706 -0.383996 927.915 
10 1 1.85379 1.7169 2.52292 912.047 
11 1 4.68366 -1.38174 2.36405 920.079 
12 1 4.33617 1.63171 -0.838075 933.757 
13 2 4.65591 2.34326 2.83001 935.235 
14 2 4.20393 -0.935511 -0.462907 913.179 
15 2 1.76101 1.73479 -0.346757 923.783 
16 2 1.93763 -0.820674 2.62534 917.582 
17 1 6.91636 -1.64614 -0.68181 909.539 
18 1 7.22117 2.26141 2.28304 955.493 
19 1 10.3647 -1.17821 2.69138 917.538 
20 1 10.2772 1.64488 -0.759257 917.011 
21 2 10.5771 1.66264 2.15512 934.297 
22 2 9.95764 -1.40004 -0.66129 926.838 
23 2 7.22188 2.11649 -0.559578 907.124 
24 2 7.74614 -2.13691 2.37599 920.977 
25 1 12.7116 -1.2872 -0.222882 929.159 
26 1 13.1317 1.85337 1.97903 940.899 
27 1 15.6497 -1.11246 2.52688 933.329 
28 1 16.0171 1.33281 -0.97783 926.375 
29 2 15.9689 2.23539 2.40242 948.977 
30 2 15.4141 -1.44596 -0.155891 939.936 
31 2 13.1953 1.60899 -0.759177 942.16 
32 2 13.1893 -1.06812 2.14181 941.151 
33 1 18.0102 -1.46365 -0.627636 946.488 
34 1 18.7503 1.95548 2.00829 924.793 
35 1 21.6552 -1.23129 2.72529 952.023 
36 1 20.9866 1.31132 -1.33988 960.321 
37 2 21.2914 2.22397 2.87179 929.653 
38 2 21.4247 -1.30264 -0.814039 941.614 
39 2 18.5668 1.08563 -0.958007 931.823 
40 2 18.4089 -1.03778 2.62189 955.879 
41 1 24.0933 -1.15565 -0.840734 955.054 
42 1 24.496 1.79692 2.45389 935.673 
43 1 27.5074 -1.30087 2.10288 942.057 
44 1 26.9575 1.49957 -0.820868 938.915 
45 2 27.4635 1.88518 2.55175 957.207 
46 2 27.3686 -1.04203 -1.062 939.198 
47 2 24.2269 1.46764 -0.797806 949.65 
48 2 24.3262 -1.35594 2.81869 937.718 
49 1 30.1817 -0.679273 -1.23539 945.345 
50 1 30.115 1.43495 1.99907 951.833 
51 1 32.9348 -1.05842 2.03507 964.689 
52 1 33.4148 1.51444 -1.09059 943.43 
53 2 33.6164 1.61415 1.81465 974.805 
54 2 33.0829 -1.01088 -0.763433 942.063 
55 2 30.2973 1.7494 -0.740313 966.883 
56 2 30.0055 -1.22906 1.84602 941.312 
57 1 35.7162 -1.57858 -1.16931 964.048 
58 1 36.4297 1.41868 2.00443 973.89 
59 1 38.8669 -1.30937 2.52463 950.6 
60 1 39.3928 1.24035 -1.46746 966.199 
61 2 38.7927 1.31196 1.62391 939.218 
62 2 38.8904 -1.73285 -1.28071 953.514 
63 2 36.3254 1.59638 -1.03353 975.949 
64 2 35.7375 -1.44247 2.66422 972.497 
65 1 41.7207 -1.55701 -1.02787 959.958 
66 1 41.6084 1.39325 2.39127 962.914 
67 1 44.3435 -1.48397 1.83218 978.296 
68 1 44.4916 1.37309 -1.12275 985.384 
69 2 44.7566 1.35106 1.73922 972.153 
70 2 44.7596 -1.83607 -1.06504 977.654 
71 2 41.7768 0.867714 -1.20525 961.993 
72 2 41.8304 -1.46198 1.85119 964.535 
73 1 47.1968 -1.47143 -0.676052 968.623 
74 1 47.3027 1.37735 2.00675 982.723 
75 1 50.5649 -1.74139 2.16544 961.679 
76 1 50.2575 1.16141 -0.699873 974.096 
77 2 50.3709 1.53379 1.90607 974.66 
78 2 50.3651 -1.88622 -0.568748 961.69 
79 2 47.5234 1.69939 -1.02141 984.47 
80 2 46.8665 -1.33529 2.28163 970.548 
81 1 53.2474 -1.76499 -0.343424 972.837 
82 1 53.0707 1.46817 2.06144 985.624 
83 1 56.1123 -1.26129 2.38526 971.332 
84 1 56.4167 1.30541 -0.878672 979.596 
85 2 55.6107 1.57991 1.83368 981.073 
86 2 56.3399 -1.19957 -0.773859 968.575 
87 2 52.9542 1.66672 -0.94087 959.731 
88 2 53.6035 -1.6653 2.21788 977.71 
89 1 59.2706 -1.62172 -0.71753 997.02 
90 1 59.0692 0.901606 2.67901 981.201 
91 1 61.9987 -1.442 2.0858 977.084 
92 1 62.1973 1.17782 -0.142292 993.509 
93 2 62.0454 1.26354 2.38996 984.568 
94 2 62.0924 -1.44992 -0.504544 976.097 
95 2 59.5608 1.42181 -0.633619 982.801 
96 2 59.3986 -1.96136 2.13358 987.099 
97 1 65.159 -1.39705 -1.08554 990.713 
98 1 65.0855 1.34497 2.16312 981.702 
99 1 67.5936 -1.82253 2.1873 998.822 
100 1 67.5276 1.31062 -0.591033 988.298 
101 2 67.8382 0.664517 2.5581 1003.78 
102 2 67.4297 -1.38921 -0.590431 1000.91 
103 2 64.9093 1.683 -0.884926 970.082 
104 2 65.0306 -1.73672 2.18399 983.847 
105 1 70.6048 -0.764202 -0.813161 1000.48 
106 1 70.4411 1.7758 2.08964 984.898 
107 1 73.3045 -0.379753 1.9723 995.458 
108 1 73.9436 1.85566 -0.874046 989.745 
109 2 73.329 2.25386 2.21934 981.829 
110 2 73.7019 -0.521512 -1.28538 1002.29 
111 2 70.5352 1.72682 -1.14035 994.563 
112 2 70.8303 -0.861374 1.81207 1005.92 
113 1 76.532 -0.852749 -0.283348 1008.07 
114 1 76.6876 2.34602 2.38391 998.342 
115 1 79.5179 -0.978927 2.02439 985.277 
116 1 79.3751 2.09444 -0.752021 992.202 
117 2 79.3802 1.8845 2.1086 989.211 
118 2 79.5641 -0.880067 -0.39218 999.564 
119 2 76.6881 1.83882 -0.613108 1002.99 
120 2 75.9385 -1.76696 2.24692 990.656 
121 1 82.8085 -1.50161 -0.336614 1013.12 
122 1 82.5025 1.99492 2.28282 1007.23 
123 1 84.9626 -1.31049 2.68138 1028.87 
124 1 85.274 1.96511 -0.935571 1012.96 
125 2 85.1529 2.37451 2.48136 1010.02 
126 2 85.2746 -0.87927 -0.680651 1023.12 
127 2 82.7283 2.28702 -0.929138 997.906 
128 2 82.3209 -0.911802 2.77503 1003.17 
129 1 87.8931 -1.33635 -0.145762 1012.7 
130 1 88.163 1.79747 1.72585 1009.85 
131 1 91.1076 -1.53751 2.60297 1017.28 
132 1 91.1418 0.796409 -0.50989 1044.21 
133 2 91.0101 1.64718 1.82635 1026.93 
134 2 91.0791 -1.83956 -0.608446 1019.09 
135 2 88.4242 0.934192 -0.877501 1001.98 
136 2 88.0827 -1.16778 2.6177 1019.99 
137 1 94.2706 -1.48221 -0.651334 1035.62 
138 1 93.8382 1.60722 2.21228 1002.35 
139 1 96.6007 -1.27878 2.37038 1007.65 
140 1 97.1666 1.67231 -0.686212 1023.91 
141 2 96.7884 1.38787 2.30177 1005.02 
142 2 96.6764 -1.03909 -0.821869 1013.17 
143 2 93.5919 1.57931 -0.929963 1014.43 
144 2 93.7743 -1.23758 1.87663 1004.3 
145 1 99.83 -1.08394 -0.661248 1028.45 
146 1 99.5905 2.08758 2.22781 1024.11 
147 1 102.469 -0.89661 2.88177 1015.42 
148 1 102.623 1.41176 -1.32476 1006.03 
149 2 102.246 1.9685 2.36107 1017.39 
150 2 102.759 -1.43585 -1.40105 1020.13 
151 2 99.6242 1.83683 -1.26352 1015.31 
152 2 99.7292 -0.794981 2.1468 1037.88 
153 1 105.452 -1.18259 -1.11206 1041.41 
154 1 105.441 1.42507 2.52328 1038.99 
155 1 108.11 -1.21071 2.29659 1040.78 
156 1 108.369 1.917 -1.27153 1039.67 
157 2 108.698 1.75131 2.2478 1052.07 
158 2 108.232 -1.79461 -0.639268 1046.9 
159 2 105.054 1.26134 -0.956703 1036.57 
160 2 105.231 -1.07727 2.5914 1058.17 
161 1 111.351 -1.3083 -0.288743 1051.24 
162 1 111.517 1.28122 2.62375 1043.33 
163 1 114.657 -1.05231 2.19285 1075.59 
164 1 113.498 2.04237 -1.25504 1061.97 
165 2 114.144 1.24374 3.08649 1038.28 
166 2 114.046 -0.836797 -0.224614 1074.44 
167 2 110.902 1.56694 -1.06021 1063.33 
168 2 111.138 -1.68874 2.81826 1042.95 
169 1 116.808 -1.26791 -1.0648 1075.36 
170 1 117.36 1.65227 2.44752 1057.27 
171 1 120.311 -1.62824 3.07058 1073.75 
172 1 119.71 1.47829 -0.462398 1064.44 
173 2 120.162 1.06104 2.34614 1048.71 
174 2 120.149 -1.34611 -0.491779 1060.37 
175 2 116.364 1.3602 -0.664295 1052.34 
176 2 117.26 -1.81796 2.37588 1061.7 
177 1 122.772 -1.38745 -0.415749 1073.6 
178 1 123.022 1.84814 3.08598 1076.55 
179 1 125.197 -1.02866 3.16317 1050.22 
180 1 125.697 1.31843 -1.29896 1060.01 
181 2 125.632 1.44411 2.94882 1074.31 
182 2 125.899 -1.49467 -0.715866 1076.82 
183 2 123.387 1.61139 -1.09768 1084.23 
184 2 122.765 -1.58848 2.51931 1071.93 
185 1 128.477 -1.80333 -0.510393 1071.58 
186 1 128.842 1.15907 2.6383 1062.32 
187 1 131.962 -1.90218 2.66108 1071.66 
188 1 132.163 0.899649 0.0766521 1078.26 
189 2 132.205 1.70562 2.58004 1075.51 
190 2 131.916 39.9736 -0.492734 1078.91 
191 2 129.787 1.91058 0.0141842 1059.54 
192 2 129.518 -1.65803 2.67197 1071.1 
193 1 134.532 -1.97883 -0.423067 1062.78 
194 1 134.61 1.07102 2.43352 1087.53 
195 1 137.632 -1.40725 2.57041 1093.45 
196 1 137.458 1.74771 -0.759293 1080.36 
197 2 138.072 2.37021 2.58573 1086.55 
198 2 137.04 -1.68107 -0.369564 1088.74 
199 2 134.427 1.36162 -0.177432 1081.93 
200 2 134.459 -1.6774 2.487 1068.22 
201 1 140.133 -1.10044 -0.374626 1070.47 
202 1 140.893 1.85438 2.91564 1101.54 
203 1 143.991 -1.21473 2.73144 1077.12 
204 1 143.644 1.52036 0.0896542 1096.27 
205 2 143.896 1.43341 3.27079 1081.34 
206 2 143.891 -1.31113 -0.114675 1072.27 
207 2 141.313 2.22898 -0.231706 1115.61 
208 2 140.774 -0.775848 2.58522 1076.63 
209 1 146.57 -1.16142 -0.504261 1079.24 
210 1 146.728 1.44731 2.5109 1074.14 
211 1 149.293 -1.68661 2.21352 1065.65 
212 1 149.493 2.00811 -0.324116 1097.03 
213 2 149.596 1.77649 2.62073 1074.47 
214 2 148.873 -1.74346 -0.322425 1086.51 
215 2 146.554 1.60829 -0.28024 1092.38 
216 2 146.639 -1.69768 2.57236 1075.68 
217 1 152.084 40.1232 -0.61244 1089.28 
218 1 152.653 0.798057 2.82585 1070.07 
219 1 155.428 -1.82926 2.35286 1068.39 
220 1 154.754 1.41073 -0.42697 1066.15 
221 2 155.264 2.15247 2.97073 1071.24 
222 2 155.477 -1.34084 -0.187775 1083.69 
223 2 152.076 0.333333 -0.204789 1071.24 
224 2 152.516 -1.90013 2.86792 1063.35 
225 1 158.086 -1.37897 0.0911169 1067.55 
226 1 157.967 1.68212 3.19332 1084.23 
227 1 160.734 -1.6304 2.93358 1088.17 
228 1 161.111 0.787121 -0.244496 1065.88 
229 2 160.558 1.52245 2.85372 1056.85 
230 2 160.958 -2.02299 -0.0250532 1069.97 
231 2 158.359 0.926841 -1.15631 1068.78 
232 2 158.333 -1.24651 2.98942 1068.98 
233 1 164.128 -2.10559 -0.374593 1050.1 
234 1 163.287 1.52797 2.6296 1075.11 
235 1 166.287 -1.05248 2.55781 1054.54 
236 1 167.238 1.87558 -0.0768674 1047.13 
237 2 166.711 1.50697 2.51127 1042.79 
238 2 166.503 -1.36991 -0.20707 1054.64 
239 2 164.046 1.60583 0.279781 1072.85 
240 2 163.354 -1.42434 2.75028 1066.12 
241 1 169.941 -1.3852 -0.434816 1067.38 
242 1 169.312 1.08264 2.92178 1055.9 
243 1 172.63 -1.44314 2.87856 1050.63 
244 1 172.579 2.13264 -0.203635 1062.47 
245 2 172.384 1.14512 2.68279 1068.53 
246 2 172.388 -1.39403 -1.02203 1046.76 
247 2 170.115 1.67994 -0.29818 1078.21 
248 2 169.644 -1.33059 2.36607 1082.94 
249 1 175.847 -1.53802 -0.552398 1043.53 
250 1 175.917 1.56543 2.77204 1039.9 
251 1 179.014 -0.899878 2.31137 1038.55 
252 1 178.254 1.88751 -0.6835 1043.56 
253 2 178.861 1.77212 2.19497 1027.76 
254 2 178.371 -1.31603 -0.81472 1021.4 
255 2 175.685 1.76483 -0.263569 1035.13 
256 2 175.515 -1.36543 2.24263 1030.76 
257 1 181.118 -0.917326 -0.713315 1038.9 
258 1 181.61 2.31568 2.15236 1047.29 
259 1 183.909 -1.52389 2.38358 1034.86 
260 1 184.423 1.87785 -0.601027 1033.63 
261 2 184.784 1.16996 1.77789 1050.21 
262 2 184.398 -1.44355 -0.69615 1060.15 
263 2 181.276 2.09864 -0.479099 1039.86 
264 2 181.446 -1.44554 2.06871 1069.2 
265 1 186.824 -1.20825 0.0681342 1047.72 
266 1 187.1 1.97529 2.33592 1029.71 
267 1 189.905 -1.24266 2.26535 1025.13 
268 1 190.086 1.1898 -0.440391 1025.01 
269 2 189.761 1.57331 2.32979 1013.26 
270 2 190.472 -1.41522 -0.522722 1016.21 
271 2 186.976 1.01993 -1.22405 1041.41 
272 2 187.14 -1.79607 2.65946 1065.11 
273 1 192.981 -1.9982 -0.566408 1010.85 
274 1 193.28 1.74276 2.63507 1040.95 
275 1 195.85 -1.25922 2.54487 1023.08 
276 1 195.847 1.5638 -0.195116 1013.46 
277 2 196.278 2.25979 2.7084 1024.31 
278 2 195.307 -2.07146 -0.942079 1022.44 
279 2 193.171 2.06416 -0.438613 1028.46 
280 2 192.99 -1.04136 2.27986 1050.83 
281 1 198.734 -1.23006 -0.533043 1026.84 
282 1 198.851 2.44842 2.44695 1010.78 
283 1 202.054 -1.0403 2.63416 979.906 
284 1 201.346 1.71892 -0.143079 1002.48 
285 2 201.927 1.91892 2.4113 1008.01 
286 2 201.582 -1.59239 0.00729142 1022.34 
287 2 198.751 2.2535 -0.592636 1008.22 
288 2 198.297 -1.30653 2.19094 1003.7 
289 1 204.69 -1.778 -0.503786 1021.47 
290 1 205.061 1.71728 2.27844 1005.13 
291 1 207.409 -1.27137 2.74516 1006.41 
292 1 207.41 1.58704 -0.607136 1015.7 
293 2 207.609 1.33929 2.43802 1010.92 
294 2 207.441 -1.32174 -0.631969 1017.06 
295 2 204.651 1.32841 -0.693029 1013.94 
296 2 205.13 40.1618 2.38474 1013.33 
297 1 209.881 -1.4197 -0.681671 1017.83 
298 1 210.092 1.59751 2.51893 1010.77 
299 1 213.097 -0.840456 2.73135 990.715 
300 1 213.378 2.186 -0.474385 1008.18 
301 2 213.53 2.08289 2.53446 986.498 
302 2 212.699 -1.25272 -0.850679 990.012 
303 2 210.212 2.0329 -0.566695 1017.57 
304 2 210.177 -1.28223 2.67635 1011.5 
305 1 215.968 -1.29249 -0.525831 988.756 
306 1 216.314 1.90162 2.82556 1031.6 
307 1 219.134 -1.07832 2.39638 996.19 
308 1 219.134 2.00528 -0.772607 1004.89 
309 2 219.065 1.80373 2.42444 1009.67 
310 2 219.361 -1.90526 -0.28809 1001.37 
311 2 216.471 2.02552 -0.225821 998.066 
312 2 215.932 -0.840724 2.03858 999.086 
313 1 222.032 -1.48416 -0.0378198 989.042 
314 1 222.147 1.9433 2.50878 985.909 
315 1 224.874 -1.15777 2.93196 1001.93 
316 1 224.658 1.53656 -0.0300583 1011.21 
317 2 225.126 1.59489 3.18317 1012.1 
318 2 224.855 -1.71353 -0.379828 994.768 
319 2 222.164 1.49806 -0.53467 998.582 
320 2 222.044 -0.771165 3.14879 995.975 
321 1 227.546 -1.28409 -0.0172994 978.386 
322 1 227.965 1.29635 3.01565 975.208 
323 1 230.977 40.0145 2.367 964.324 
324 1 231.123 1.49617 -0.0869095 982.408 
325 2 231.076 1.3299 3.28029 971.014 
326 2 230.958 -1.51638 -0.501297 967.721 
327 2 227.541 1.2865 -0.117508 1014.46 
328 2 227.614 -1.48075 2.99147 993.723 
329 1 233.887 -1.59257 -0.282418 973.234 
330 1 233.518 1.17591 3.83514 976.691 
331 1 236.486 -1.23247 3.31532 972.478 
332 1 236.44 1.54311 0.0810165 962.457 
333 2 236.047 1.27658 2.84613 940.425 
334 2 236.976 -1.38936 -0.0121719 988.113 
335 2 233.778 1.22168 -0.692944 980.021 
336 2 233.888 -1.84539 3.22343 977.935 
337 1 239.657 40.0388 -0.0226171 976.17 
338 1 239.222 1.51155 3.1109 958.835 
339 1 242.591 -1.52765 2.49959 955.081 
340 1 242.284 1.10603 -0.451488 956.561 
341 2 242.463 1.27143 2.57953 964.664 
342 2 242.487 -1.68818 -0.691017 984.709 
343 2 239.49 1.88344 0.250129 952.452 
344 2 239.762 -1.81849 3.29247 986.038 
345 1 245.358 -1.82389 -0.742246 954.622 
346 1 245.198 0.858599 2.00977 937.935 
347 1 248.084 -1.44173 2.52886 950.711 
348 1 248.242 1.09891 -0.441413 946.847 
349 2 247.628 1.09267 3.12894 962.828 
350 2 248.305 -2.00702 -0.175482 953.294 
351 2 245.497 0.825196 -0.560013 983.62 
352 2 245.137 -1.78619 2.46278 973.15 
353 1 251.099 -1.29947 -0.134532 964.656 
354 1 250.921 1.37125 3.17711 976.98 
355 1 253.699 -1.96416 3.09821 959.484 
356 1 253.675 1.38811 0.0184712 945.51 
357 2 253.628 1.21171 2.86232 946.703 
358 2 253.48 -1.85659 0.489472 945.368 
359 2 250.901 1.6818 0.337318 947.625 
360 2 250.617 -1.3864 2.91282 963.311 
361 1 256.711 -1.69441 0.104489 936.207 
362 1 256.536 1.6767 2.2213 963.171 
363 1 259.041 -1.71929 3.07328 948.444 
364 1 259.383 1.46332 -0.328783 940.12 
365 2 259.356 1.89323 2.88513 948.726 
366 2 258.952 -1.6273 -0.19361 950.104 
367 2 256.145 1.38643 -0.410218 948.286 
368 2 256.478 -1.5608 2.92672 958.236 
369 1 262.501 -1.53696 -0.841485 938.31 
370 1 261.968 2.06505 2.77468 956.472 
371 1 264.463 -1.55897 2.48514 934.292 
372 1 265.221 1.09773 0.312165 949.665 
373 2 264.959 2.19674 2.6816 939.105 
374 2 265.174 -1.48515 -0.284488 940.577 
375 2 262.33 1.2027 -0.0239656 942.584 
376 2 262.081 -1.56193 2.31043 951.418 
377 1 267.764 -1.46303 -0.879174 923.926 
378 1 268.204 1.97081 2.54878 934.127 
379 1 270.409 -1.4656 2.45385 912.419 
380 1 271.183 1.69786 -0.693951 918.99 
381 2 270.723 1.05816 2.70796 912.755 
382 2 270.852 -2.03978 -0.495721 914.598 
383 2 267.901 1.55272 -0.528346 933.232 
384 2 267.465 -1.55708 2.8002 929.871 
385 1 273.785 -2.02187 -0.666031 916.288 
386 1 273.686 0.820859 2.70766 925.842 
387 1 276.374 -1.86539 2.95016 940.505 
388 1 276.419 1.07845 0.0730724 952.748 
389 2 276.965 0.813636 2.75401 936.802 
390 2 276.78 -1.39952 -0.400065 939.004 
391 2 273.912 1.40834 -0.33455 937.807 
392 2 273.937 -1.74131 2.45961 925.702 
393 1 279.606 -1.73604 0.127843 926.441 
394 1 279.8 1.43934 2.68634 923.905 
395 1 282.421 -1.13808 3.13982 905.511 
396 1 282.31 2.15858 0.207545 914.657 
397 2 282.638 2.16112 2.82756 919.16 
398 2 282.943 -1.54045 -0.0765387 929.702 
399 2 280.116 1.1875 -0.253609 924.053 
400 2 279.853 -1.19578 2.86621 931.009 
401 1 -3.35782 4.44603 -0.212368 921.759 
402 1 -3.90298 8.03218 2.23642 923.866 
403 1 -1.22501 4.55939 2.65371 918.969 
404 1 -0.55967 8.12674 -0.0304133 919.602 
405 2 -1.01362 7.72317 2.30981 921.306 
406 2 -0.689954 5.24379 -0.755808 895.435 
407 2 -4.75452 8.18376 -0.784096 912.052 
408 2 -3.76223 4.43474 2.30974 914.422 
409 1 2.11329 4.78132 -0.59184 924.308 
410 1 2.16227 8.05541 2.89989 918.993 
411 1 4.71183 4.9765 2.42729 920.179 
412 1 4.74557 7.84424 -0.732636 889.805 
413 2 4.42265 7.63679 2.34921 909.744 
414 2 4.90523 5.3846 -0.49892 913.643 
415 2 2.02009 7.58958 -1.12562 884.32 
416 2 1.94734 5.24925 2.82693 907.571 
417 1 7.65467 4.70637 -0.475264 930.704 
418 1 7.5401 7.75716 2.29777 938.858 
419 1 10.2268 5.03188 2.11776 919.744 
420 1 10.2549 7.69627 -0.480794 930.483 
421 2 9.86236 7.56306 2.07992 940.767 
422 2 10.4151 4.60169 -0.928367 943.322 
423 2 7.39293 8.20331 -0.562211 929.247 
424 2 7.30657 4.84464 2.00084 916.879 
425 1 13.1049 4.41355 -0.619271 934.501 
426 1 12.9657 8.02965 2.38599 933.599 
427 1 15.9903 5.17504 2.27381 930.855 
428 1 15.6925 7.93545 -0.760686 954.069 
429 2 15.9981 7.65803 2.27062 938.748 
430 2 15.5793 4.99125 -1.22412 928.19 
431 2 12.9902 8.00957 -0.707872 924.764 
432 2 13.1057 5.12847 2.08846 922.221 
433 1 18.6317 4.74228 -1.10461 930.139 
434 1 18.8474 7.94623 1.6369 930.113 
435 1 22.0556 4.81343 2.16511 947.343 
436 1 21.863 8.02574 -0.999005 946.916 
437 2 22.1277 7.8432 1.93911 925.014 
438 2 21.7247 4.38232 -0.906841 952.235 
439 2 19.0999 7.89186 -0.975524 947.625 
440 2 18.4797 4.61148 1.65842 934.259 
441 1 24.3831 4.40455 -0.882055 915.629 
442 1 24.745 7.37214 1.88876 944.072 
443 1 28.1175 4.72095 2.00092 953.989 
444 1 27.1672 7.30991 -1.18029 980.983 
445 2 27.7799 7.52793 1.47349 952.263 
446 2 27.3818 4.24996 -0.565782 978.44 
447 2 24.4128 7.65187 -1.01941 931.116 
448 2 24.5829 4.41497 1.9642 921.916 
449 1 30.0293 4.37006 -1.15073 958.972 
450 1 30.5007 7.28521 2.09557 942.076 
451 1 33.2212 4.33132 2.07177 956.358 
452 1 33.274 7.24015 -1.35192 954.054 
453 2 33.0675 7.18988 2.05061 959.813 
454 2 33.1873 4.57625 -1.1049 961.309 
455 2 29.9657 7.07788 -1.15976 954.469 
456 2 30.5933 4.1618 1.91283 960.526 
457 1 35.8015 4.43207 -0.918737 964.05 
458 1 36.0619 7.21548 2.28101 974.47 
459 1 38.989 4.57083 2.60887 965.621 
460 1 39.0189 7.94635 -0.625439 950.905 
461 2 39.1794 7.47353 2.0921 955.374 
462 2 39.2315 4.64585 -1.54959 948.497 
463 2 36.2937 7.62283 -1.33469 955.046 
464 2 36.2918 4.7107 2.42722 945.506 
465 1 41.6621 3.98142 -0.907062 982.607 
466 1 42.5264 6.65636 2.77775 953.969 
467 1 44.8699 4.07991 2.0072 966.518 
468 1 44.6484 7.51976 -0.890336 967.036 
469 2 44.7179 7.2482 2.3389 952.628 
470 2 44.4189 4.5581 -1.11409 974.573 
471 2 41.9636 7.46676 -0.939441 964.628 
472 2 41.564 3.86921 2.59794 958.164 
473 1 47.8289 4.39725 -0.810103 971.731 
474 1 47.7564 7.32821 1.79814 968.084 
475 1 50.0905 4.31852 2.27816 961.761 
476 1 50.3408 7.75667 -0.882783 963.91 
477 2 50.3973 7.12867 1.87275 982.873 
478 2 50.4301 4.30382 -0.972113 961.063 
479 2 47.6155 7.19318 -1.00516 973.681 
480 2 47.4821 4.58829 1.94701 968.453 
481 1 52.9634 4.5472 -0.489801 969.553 
482 1 52.9552 7.61991 2.20874 996.399 
483 1 56.3118 4.52551 2.20622 988.131 
484 1 56.1267 8.07814 -1.08628 1001.46 
485 2 55.6802 7.7943 2.205 1000.97 
486 2 56.5543 4.34477 -0.10409 992.799 
487 2 53.3986 7.61637 -0.934276 981.299 
488 2 52.8808 4.11554 2.3545 993.325 
489 1 59.366 4.14822 -0.600951 973.592 
490 1 59.681 7.21324 1.96531 968.225 
491 1 62.4681 4.63833 2.38756 983.206 
492 1 62.2247 7.83475 -0.92321 1001.75 
493 2 62.5172 7.64589 2.19904 996.408 
494 2 62.1154 4.84821 -0.569858 1001.3 
495 2 59.19 8.27346 -0.683514 965.899 
496 2 59.68 4.63383 2.15065 971.215 
497 1 64.9365 4.63797 -0.838269 972.724 
498 1 65.231 7.82783 1.82419 977.419 
499 1 67.739 4.38402 2.30371 993.092 
500 1 67.8731 7.16573 -1.04251 994.996 
501 2 67.6898 7.63993 2.29483 1000.42 
502 2 68.0533 4.33452 -1.06127 989.274 
503 2 65.0671 7.24804 -0.813545 973.24 
504 2 65.1878 4.06348 2.18078 968.659 
505 1 70.5773 4.44439 -1.73933 1004.97 
506 1 70.7149 8.08626 1.96042 1008.05 
507 1 73.314 4.57534 2.30277 983.1 
508 1 73.6102 7.76129 -1.14538 1001.71 
509 2 73.7749 7.14931 2.18727 985.299 
510 2 73.8702 4.1183 -1.14997 1000.18 
511 2 70.9322 8.08336 -0.929232 990.968 
512 2 70.4105 4.53382 2.20418 991.296 
513 1 76.1232 4.40549 -1.00077 1001.25 
514 1 76.9756 7.26316 2.02436 981.6 
515 1 79.4858 4.7588 1.79521 984.81 
516 1 79.9705 7.48158 -0.996807 1004.09 
517 2 79.6006 7.73805 1.60438 1000.37 
518 2 79.7197 4.76897 -1.16821 1014.87 
519 2 76.4425 7.58748 -0.767554 988.04 
520 2 76.7517 4.62007 1.89816 998.735 
521 1 82.4618 4.97885 -0.582391 995.279 
522 1 82.4997 8.17953 2.09489 1017.28 
523 1 85.532 4.9486 1.82358 994.777 
524 1 85.1858 7.78329 -0.541953 1007.74 
525 2 84.9341 8.14594 2.53726 982.762 
526 2 85.2518 5.02225 -0.520064 1007.8 
527 2 82.4429 7.69845 -0.72205 1005.05 
528 2 82.1592 4.82525 2.31947 989.826 
529 1 88.0233 4.98407 -0.901531 1028.3 
530 1 88.3182 8.23353 2.54599 1019.4 
531 1 90.9634 4.67171 2.63646 1014.51 
532 1 91.3432 7.92878 -0.376252 1018.08 
533 2 91.1243 7.62785 2.65467 1017.79 
534 2 91.2224 4.75296 -0.453884 1010.47 
535 2 87.7738 7.37231 -0.382589 1014.85 
536 2 88.182 4.3271 2.66617 994.862 
537 1 94.1198 3.97526 -0.236741 1011.81 
538 1 94.0265 8.81166 2.63895 1012.58 
539 1 96.9184 4.35433 2.5048 1002.39 
540 1 96.6996 7.29979 -0.0158754 1028.06 
541 2 97.4527 7.54641 2.52855 1018.96 
542 2 96.6959 4.2701 -0.473026 1009.34 
543 2 94.1218 7.76996 -0.287044 1000.12 
544 2 94.0736 4.62657 2.41133 1003.13 
545 1 99.482 4.3503 -0.355547 1039.86 
546 1 99.9159 8.02746 2.26396 1033.88 
547 1 102.457 4.74939 2.0314 1024.84 
548 1 102.745 7.76808 -0.868046 1043.11 
549 2 102.526 7.9336 2.17689 1035.17 
550 2 102.715 4.95182 -0.867863 1023 
551 2 99.2647 7.51382 -0.67366 1037.21 
552 2 99.8009 4.45372 2.24149 1002.09 
553 1 105.367 4.62731 -0.399677 1040.59 
554 1 105.446 7.82424 2.46411 1038.8 
555 1 108.07 4.82673 2.43323 1044.15 
556 1 108.11 7.52538 -0.702224 998.951 
557 2 108.155 7.97432 2.40765 1040.24 
558 2 108.231 4.95842 -0.360564 1064.33 
559 2 105.28 7.81496 -0.701502 1025.01 
560 2 105.356 4.55455 2.5749 1035.55 
561 1 110.763 5.02515 -0.708317 1048.69 
562 1 111.025 7.17753 2.38676 1045.25 
563 1 113.963 5.05391 2.56294 1053.3 
564 1 114.04 7.47521 -0.555698 1057.12 
565 2 114.178 7.60396 2.41529 1057.46 
566 2 113.948 4.5823 0.0513825 1043.1 
567 2 110.976 7.54936 -0.976804 1020.65 
568 2 110.687 4.86841 2.27176 1052.47 
569 1 116.614 4.18077 -0.592303 1058.29 
570 1 117.023 7.22757 2.51112 1065.95 
571 1 120.377 5.00853 2.57122 1043.47 
572 1 120.227 7.36531 -0.212637 1069.95 
573 2 120.168 7.57239 2.59215 1075.93 
574 2 120.354 4.23972 -0.42803 1052.53 
575 2 117.095 6.89141 -0.431793 1060.57 
576 2 117.597 4.47815 2.76962 1051.43 
577 1 123.006 4.11653 -0.969102 1052.14 
578 1 122.705 7.99896 2.70383 1070.57 
579 1 125.953 3.75749 2.40062 1087.3 
580 1 125.813 7.55851 -0.115015 1053.28 
581 2 126.084 8.37901 2.61442 1047.71 
582 2 126.232 4.05607 -0.518843 1057.91 
583 2 123.07 7.48556 -0.285936 1063.1 
584 2 123.526 4.33707 3.04777 1067.83 
585 1 129.629 4.28957 0.0390986 1051.05 
586 1 128.969 7.89498 2.43802 1074.21 
587 1 132.159 4.54638 2.30228 1091.95 
588 1 132.337 7.49392 -0.426076 1068.43 
589 2 131.736 7.92475 2.44883 1053.78 
590 2 132.477 4.96586 -0.187833 1074.94 
591 2 128.712 7.92263 -0.170098 1076.01 
592 2 128.768 4.84167 2.41026 1069.7 
593 1 134.759 5.17079 -0.512819 1087.78 
594 1 134.833 7.67515 2.84023 1079.57 
595 1 137.704 4.63272 3.04058 1086.46 
596 1 137.997 7.44305 0.0851828 1071.59 
597 2 138.026 7.47984 2.98229 1084.62 
598 2 137.62 4.91996 -0.798319 1066.96 
599 2 134.925 7.72447 -1.02514 1074.8 
600 2 135.103 5.08487 2.52665 1072.1 
601 1 140.681 4.85058 -0.362832 1110.5 
602 1 141.067 8.0984 3.34581 1099.75 
603 1 144.107 4.57265 2.7658 1079.51 
604 1 143.322 7.52224 -0.124904 1098.34 
605 2 143.97 8.22523 2.32655 1097.33 
606 2 143.616 5.1249 -0.322336 1078.77 
607 2 140.601 7.94012 -0.389929 1082.05 
608 2 141.082 4.93618 2.59046 1113.36 
609 1 146.628 4.71555 -0.335195 1103.16 
610 1 146.5 7.56307 1.67755 1105.5 
611 1 149.483 4.51372 2.49802 1083.76 
612 1 149.235 7.79371 -0.586656 1075.09 
613 2 149.333 7.85734 2.21696 1089.39 
614 2 149.098 5.08514 -0.189171 1081.21 
615 2 146.308 7.62777 -0.881987 1078.96 
616 2 146.471 4.10989 2.80738 1116.8 
617 1 152.155 4.50998 -0.340279 1070.3 
618 1 152.253 7.77373 2.34525 1081.32 
619 1 155.192 4.60536 2.65415 1076.34 
620 1 155.278 6.85697 -0.345245 1068.59 
621 2 155.025 8.09077 2.34284 1088.09 
622 2 155.361 3.94165 -0.729857 1099.82 
623 2 152.324 7.45238 -0.47843 1077.94 
624 2 152.429 4.76223 2.34896 1084.64 
625 1 158.199 4.5607 -0.516877 1060.22 
626 1 157.841 8.11091 2.5845 1087.17 
627 1 160.335 5.00359 1.95527 1070.57 
628 1 160.522 8.14883 -0.553752 1060.7 
629 2 160.934 8.09692 2.32774 1066.58 
630 2 160.526 4.93332 -1.01091 1053.69 
631 2 157.981 7.41902 -0.308801 1054.66 
632 2 157.619 5.27107 2.85699 1070.08 
633 1 163.785 4.59594 -1.15443 1078.46 
634 1 163.424 7.32721 2.54976 1082.74 
635 1 166.233 4.09159 2.54875 1063.32 
636 1 166.743 7.40492 -0.888201 1059.25 
637 2 166.653 7.53212 2.79472 1052.95 
638 2 166.322 4.9825 -0.351331 1068.52 
639 2 163.728 7.6012 -0.494627 1077.92 
640 2 163.434 4.52105 2.8865 1105.56 
641 1 169.46 4.62351 -1.09665 1076.9 
642 1 169.44 7.42781 2.52825 1035.04 
643 1 171.712 4.71918 2.00033 1056.61 
644 1 172.684 7.60927 -0.687185 1067.2 
645 2 171.944 7.66956 2.54017 1070.63 
646 2 172.622 4.87221 -0.564066 1044.71 
647 2 169.743 7.83385 -0.901171 1047.62 
648 2 169.341 4.9108 1.77623 1059.19 
649 1 175.213 4.44207 -0.381695 1059.14 
650 1 175.21 7.09433 2.40998 1040.51 
651 1 178.368 4.51345 2.34659 1043.06 
652 1 177.951 7.71523 -0.606083 1041.32 
653 2 178.252 7.47583 2.39419 1049.31 
654 2 178.255 4.63014 -0.669262 1040.83 
655 2 175.137 7.41314 -0.427674 1042.47 
656 2 175.388 4.31847 2.38767 1043.67 
657 1 181.02 4.72951 -0.845545 1036.39 
658 1 180.879 7.4382 2.56715 1040.94 
659 1 184.448 4.96333 2.51454 1048.8 
660 1 183.791 8.14018 -0.0205658 1025.32 
661 2 184.402 7.40098 2.3082 1026.33 
662 2 184.246 4.45512 -0.401777 1035.61 
663 2 181.164 8.12575 -0.20928 1064.33 
664 2 180.963 4.6903 2.8425 1035.37 
665 1 186.828 5.24849 -1.0207 1033.68 
666 1 187.107 7.44068 2.31542 1040.73 
667 1 189.913 4.81277 2.85873 1029.44 
668 1 189.667 7.58078 -0.265739 1024.44 
669 2 189.931 7.42198 2.9774 1020.46 
670 2 189.921 4.29249 -0.301474 1024.37 
671 2 187.32 7.9385 -0.247862 1025.29 
672 2 187.102 4.40079 2.63542 1033.89 
673 1 192.271 5.09889 -0.284785 1036.83 
674 1 193.092 8.01127 3.22918 1024.72 
675 1 195.743 4.83492 2.36517 1031.13 
676 1 196.049 7.97018 -0.487643 1007.48 
677 2 196.128 8.06325 3.45666 1042.72 
678 2 196.178 5.27525 -0.337409 1040.27 
679 2 193.151 8.00987 0.203894 1013.81 
680 2 193.132 4.23983 3.0321 1020.27 
681 1 199.064 5.18125 -0.446006 1018.35 
682 1 198.7 7.65655 3.18389 1010.9 
683 1 201.851 4.7676 2.73637 1011.79 
684 1 202.228 7.93362 -0.277215 1005.12 
685 2 201.854 7.33697 2.87672 997.635 
686 2 202.062 5.02817 -0.353964 1013.8 
687 2 198.936 8.14143 -0.586748 1024.65 
688 2 198.739 5.04569 2.7653 1028.61 
689 1 204.543 5.22396 -0.204487 994.29 
690 1 204.454 8.19166 2.54943 1011.61 
691 1 207.801 5.2428 2.87652 1002.38 
692 1 207.407 8.10335 -0.56198 1018.54 
693 2 207.642 8.13743 2.55652 1026.05 
694 2 207.516 5.11525 -0.524337 1028.54 
695 2 204.873 7.82994 -0.147125 1031.49 
696 2 205.035 4.93508 2.61101 1035.43 
697 1 210.124 4.86273 -0.109477 1009.54 
698 1 210.285 7.73394 2.41684 1000.09 
699 1 213.308 5.16475 2.67099 1018.04 
700 1 213.114 7.7533 -0.278118 986.566 
701 2 213.359 7.74129 2.47692 984.719 
702 2 213.651 4.83185 -0.700754 985.804 
703 2 210.083 7.70201 -0.373006 1007.1 
704 2 210.23 4.93757 2.74988 1016.46 
705 1 216.465 4.62566 -0.00566526 1005.97 
706 1 216.172 7.59012 2.37475 995.693 
707 1 219.184 4.54991 2.58899 1013.28 
708 1 219.177 7.17216 -0.139594 1015.99 
709 2 218.837 7.38004 2.79966 988.451 
710 2 219.26 4.64357 -0.305328 998.786 
711 2 216.366 7.79203 -0.477598 977.661 
712 2 216.663 4.58783 2.61812 1006.72 
713 1 222.076 4.7012 -0.609478 1000.23 
714 1 221.428 7.35493 2.74904 997.88 
715 1 225.001 4.32886 2.86724 1006.24 
716 1 225.072 7.184 -0.284858 1016.98 
717 2 224.849 7.60668 2.32829 1006.73 
718 2 224.652 4.36932 0.0276693 992.059 
719 2 221.677 7.24464 -0.0448234 985.937 
720 2 221.737 4.71322 2.57436 1011.81 
721 1 228.036 4.37284 0.0449457 986.971 
722 1 228.054 7.40129 3.1391 981.443 
723 1 230.424 3.70506 3.09175 957.463 
724 1 230.758 7.48271 0.00660717 989.496 
725 2 230.887 7.80972 3.32685 988.323 
726 2 230.71 3.94905 0.113452 987.61 
727 2 228.092 7.33403 0.157999 1006.51 
728 2 227.77 4.53567 3.19105 958.034 
729 1 233.426 3.82382 0.376525 984.228 
730 1 233.518 7.2934 2.71708 958.367 