ITEM: TIMESTEP
3000000
ITEM: NUMBER OF ATOMS
8400
ITEM: BOX BOUNDS pp pp pp
-5.9099547646241319e+00 2.8359995476463484e+02
-2.1446273254920634e+00 4.0174627325491812e+01
-1.7757301867509554e+00 1.6325730186751606e+01
ITEM: ATOMS id type x y z f_TolTpA 
1 1 -4.65051 -1.40588 0.224013 890.558 
2 1 -4.04668 1.75877 2.54624 903.657 
3 1 -1.22684 -1.20863 3.11069 894.217 
4 1 -1.52748 1.64318 -0.561454 917.724 
5 2 -1.07019 1.44995 2.88413 914.667 
6 2 -1.09249 -1.32457 -0.491329 900.616 
7 2 -4.48698 1.44716 -0.624731 897.445 
8 2 -4.39957 -1.26383 2.64888 909.177 
9 1 1.72379 -1.50014 -0.827285 916.433 
10 1 1.95291 0.881905 2.51635 912.12 
11 1 4.47379 -1.70185 2.1001 925.999 
12 1 4.26761 1.89427 -0.233949 900.082 
13 2 4.31396 1.57743 2.93485 914.301 
14 2 4.34317 -2.10923 -0.594524 919.714 
15 2 1.85817 1.25293 -0.553191 919.18 
16 2 1.49104 -1.55469 2.55085 899.936 
17 1 7.29275 -1.95372 -0.401135 917.712 
18 1 7.33138 1.37511 2.76291 928.558 
19 1 10.0162 -1.78027 2.71648 918.676 
20 1 9.67883 0.986481 -0.327899 918.586 
21 2 10.164 1.13303 2.30375 921.132 
22 2 9.83845 -1.74016 -0.539259 919.592 
23 2 6.99239 1.35001 -0.204191 917.608 
24 2 7.00823 -1.80147 2.34877 928.555 
25 1 12.7198 -2.04492 -0.760368 945.585 
26 1 12.6272 1.8047 1.98785 910.741 
27 1 15.5889 -1.23257 2.78899 927.041 
28 1 15.693 1.27761 -0.606897 925.55 
29 2 15.598 1.1873 2.67037 913.278 
30 2 15.7726 -1.89022 0.197055 930.604 
31 2 13.0227 1.75563 -0.418673 938.123 
32 2 12.61 -1.80623 2.21434 932.623 
33 1 18.8016 -1.36109 -0.434574 937.374 
34 1 18.3885 1.05424 2.46252 945.5 
35 1 21.5638 -1.73301 2.32034 912.164 
36 1 21.3012 1.08429 -0.808465 942.844 
37 2 21.4114 1.08767 2.31997 933.303 
38 2 21.5585 -1.5153 -0.385081 966.748 
39 2 18.3355 1.18116 -0.669861 936.24 
40 2 18.5633 -1.50467 2.62809 927.87 
41 1 24.2807 -1.69433 -0.81739 954.832 
42 1 24.1972 1.35419 2.46366 938.422 
43 1 27.4718 -1.28067 2.34791 937.003 
44 1 27.4777 1.66751 -0.811467 943.894 
45 2 27.6869 1.75637 2.28419 936.412 
46 2 27.7054 -1.14966 -0.44628 944.442 
47 2 24.1372 1.22707 -0.857828 948.448 
48 2 24.4583 -1.18119 2.71692 949.023 
49 1 30.0304 -1.71977 -0.816346 952.257 
50 1 30.2176 1.29265 1.97519 939.356 
51 1 33.1296 -0.91187 1.85043 940.797 
52 1 33.0542 1.9033 -0.992437 949.694 
53 2 33.376 1.68203 1.83654 935.387 
54 2 32.7049 -1.18864 -0.799141 941.328 
55 2 30.5165 1.99562 -0.566323 923.544 
56 2 30.4232 -1.3321 2.54011 957.348 
57 1 36.5933 -0.942836 -0.996284 947.513 
58 1 35.9839 1.93185 1.83862 961.449 
59 1 39.1339 -1.45231 1.9264 967.448 
60 1 39.216 1.72401 -1.23008 976.249 
61 2 39.5806 1.34473 2.05549 965.261 
62 2 39.2879 -1.30847 -1.14022 962.955 
63 2 36.3319 1.89627 -1.53305 947.729 
64 2 36.1459 -0.92073 1.69547 956.452 
65 1 41.7878 -1.29068 -1.21396 944.336 
66 1 41.947 2.55345 2.2628 960.196 
67 1 44.7984 -1.61674 2.63222 965.069 
68 1 44.7469 1.65152 -1.02339 966.716 
69 2 44.8966 1.20991 2.42032 976.833 
70 2 44.295 -0.994658 -1.41349 945.274 
71 2 41.7789 1.90157 -1.34357 963.469 
72 2 41.8567 -1.96629 2.77756 946.376 
73 1 47.5912 -1.11249 -0.87866 974.789 
74 1 47.6278 2.10821 2.79291 971.121 
75 1 50.665 -1.31223 2.3962 1011.32 
76 1 50.5484 1.84252 -0.248839 979.888 
77 2 50.5291 1.57893 2.63135 972.257 
78 2 50.9369 -1.23688 -0.558013 962.608 
79 2 47.8483 1.8827 -0.858758 983.13 
80 2 47.6224 -1.16054 2.12578 990.389 
81 1 53.5616 -1.19734 -1.346 974.753 
82 1 53.3264 1.29336 2.50469 985.032 
83 1 56.3183 -1.10327 2.04695 980.286 
84 1 56.4901 1.74912 -0.716756 976.667 
85 2 56.4041 1.90724 2.66086 977.821 
86 2 56.2016 -1.52652 -0.539962 985.593 
87 2 53.5693 1.98607 -0.620963 979.535 
88 2 53.4449 -1.28516 2.45259 979.013 
89 1 59.0523 -1.5036 -0.184733 989.643 
90 1 58.9542 1.79287 2.84215 996.856 
91 1 61.8672 -1.79737 2.37917 989.253 
92 1 61.7503 1.35065 -0.689184 1004.47 
93 2 61.9966 1.22055 2.54798 983.934 
94 2 61.6838 -1.06465 -0.72389 1015.23 
95 2 58.8889 1.16641 -0.583463 978.228 
96 2 58.9933 -0.880626 2.64546 994.066 
97 1 64.8806 -0.861537 -0.324749 989.302 
98 1 64.6076 2.17929 2.2729 993.611 
99 1 67.4261 -0.91241 1.99672 1008.6 
100 1 68.4698 1.55254 -0.544711 1005.24 
101 2 68.3475 1.57942 1.92441 987.469 
102 2 68.2391 -1.25833 -0.9436 1008.6 
103 2 65.6389 1.89449 -0.780964 993.889 
104 2 64.6529 -1.14337 2.22164 999.366 
105 1 71.1005 -1.33085 -0.341907 1004.24 
106 1 71.1848 1.96795 2.22276 1006.87 
107 1 73.8551 -1.41962 2.31951 1000.58 
108 1 74.1363 1.86602 -0.837474 1008.34 
109 2 73.5591 2.34405 2.3382 1003.49 
110 2 74.0053 -2.13808 -1.07474 1000.66 
111 2 71.1446 1.41746 -0.623069 1013.21 
112 2 71.1762 -0.792344 2.56205 996.806 
113 1 76.2618 -1.64041 -0.77633 1002 
114 1 76.2914 2.4654 2.1115 1001.17 
115 1 79.0943 -0.91972 2.28159 1025.64 
116 1 79.4092 2.07963 -0.907612 1014.94 
117 2 79.1932 2.00791 2.50704 982.794 
118 2 79.2829 -1.57053 -1.16638 1031.26 
119 2 76.6218 1.75814 -0.541444 1006.83 
120 2 76.508 -0.671902 2.11423 1011.76 
121 1 82.1801 -1.39273 -1.2538 1017.36 
122 1 81.9019 1.36782 1.83383 1018.45 
123 1 85.3005 -1.48873 2.293 996.731 
124 1 85.2212 1.82301 -0.720596 1031.54 
125 2 85.5591 1.63067 1.80965 1032.02 
126 2 85.48 -1.14229 -1.23115 994.67 
127 2 82.4508 1.67913 -0.724528 1012.26 
128 2 82.0006 -1.37741 1.8184 1008.82 
129 1 87.9722 -1.11332 -0.862867 1010.88 
130 1 88.1274 1.66463 2.62146 1032.62 
131 1 90.3958 -1.28116 1.696 1049.95 
132 1 91.0478 1.80332 -0.853223 1031.25 
133 2 91.0481 2.1458 2.06106 1030.32 
134 2 90.7376 -1.2904 -0.636089 1025.25 
135 2 88.1046 1.99071 -0.550852 1032.42 
136 2 87.7392 -1.04044 2.52838 1022.15 
137 1 93.4983 -1.38169 -0.379603 1024.46 
138 1 93.6119 1.96862 1.87623 1048.86 
139 1 96.1135 -1.33442 2.53186 1027.08 
140 1 96.556 1.65453 -0.581906 1007.24 
141 2 96.7005 1.25317 2.0075 1053.2 
142 2 96.18 -1.39865 -0.517431 1043 
143 2 93.9861 1.97547 -0.760159 1026.61 
144 2 93.3455 -1.00157 2.40335 1031.34 
145 1 99.3705 -1.02183 -0.412136 1032.25 
146 1 98.9474 1.68557 2.75505 1036.65 
147 1 102.298 -0.490794 2.9379 1043.32 
148 1 102.695 1.78495 -0.410434 1044.63 
149 2 103.01 2.02701 2.27417 1034.35 
150 2 102.282 -1.24773 -0.508059 1036.11 
151 2 100.083 1.37381 -0.378124 1060.02 
152 2 99.2499 -1.02688 2.74187 1021.53 
153 1 105.463 -1.37455 -0.514611 1050.52 
154 1 105.598 2.04699 2.41395 1045.86 
155 1 108.222 -1.39529 2.30494 1041.94 
156 1 108.259 1.43876 -0.946169 1051.07 
157 2 108.199 1.77496 2.02671 1049.33 
158 2 108.934 -1.44666 -0.696934 1040.45 
159 2 105.879 1.30129 -0.463405 1042.1 
160 2 105.374 -1.28837 2.37503 1031.94 
161 1 111.396 -0.811207 -0.494964 1034.33 
162 1 110.838 1.87318 2.47983 1038.18 
163 1 114.111 -0.58581 1.2353 1044.45 
164 1 113.669 2.61899 -1.25809 1051.89 
165 2 113.783 1.7302 2.22595 1077.11 
166 2 114.217 -1.82417 -1.20057 1072.52 
167 2 111.628 1.78736 -0.556028 1056.88 
168 2 111.325 -0.964557 2.24121 1034.22 
169 1 117.007 -1.58649 -0.980429 1056.51 
170 1 116.731 2.0562 1.93136 1099.46 
171 1 119.678 -1.52863 1.82766 1039.61 
172 1 120.037 2.0856 -0.882306 1078.51 
173 2 120.182 1.45186 1.9797 1083.37 
174 2 119.912 -1.26614 -1.24133 1072.42 
175 2 116.17 2.0271 -0.633856 1055.77 
176 2 117.277 -1.6663 1.82798 1070.41 
177 1 122.816 -1.28371 -1.06132 1064.29 
178 1 123.105 1.48997 1.76671 1096.22 
179 1 125.79 -1.37076 1.8759 1092.19 
180 1 126.011 1.96751 -0.696359 1063.04 
181 2 125.662 1.54966 2.03729 1080.05 
182 2 126.185 -1.04696 -0.922067 1081.65 
183 2 123.023 1.93721 -1.35079 1065.97 
184 2 122.357 -1.27021 1.78582 1062.81 
185 1 129.117 -1.43807 -0.590451 1084.34 
186 1 129.544 1.5338 1.80234 1092.39 
187 1 132.038 -1.41644 2.21465 1090.66 
188 1 132.206 1.25605 -0.881807 1107.11 
189 2 132.128 1.62864 1.90195 1090.27 
190 2 132.256 -1.6567 -0.754617 1079.95 
191 2 129.319 1.36856 -0.639035 1072.78 
192 2 129.275 -1.50201 1.99548 1089.78 
193 1 135.071 -1.62038 -0.165581 1091.41 
194 1 134.634 1.83549 2.95461 1096.37 
195 1 137.888 -1.54745 2.56569 1088.59 
196 1 137.264 1.79077 -0.400375 1101.83 
197 2 137.081 1.55457 2.72625 1083.43 
198 2 138.476 -1.92439 -0.222058 1114.07 
199 2 135.002 1.27517 -1.42713 1097.91 
200 2 134.33 -1.5351 2.76016 1078.29 
201 1 140.885 -1.39681 -1.34266 1096.32 
202 1 140.626 1.00419 2.17703 1093.86 
203 1 144.354 -1.98518 2.61733 1111.48 
204 1 143.901 1.19787 -0.330634 1120.74 
205 2 143.88 2.0589 2.64003 1122.72 
206 2 143.989 -1.1096 -0.208512 1093.43 
207 2 140.738 0.907375 -0.540529 1107.26 
208 2 141.477 -1.40453 3.16265 1102.81 
209 1 147.194 -1.57242 -0.126842 1110.24 
210 1 146.523 1.57187 2.35247 1087.26 
211 1 149.923 -1.29306 2.05169 1101.6 
212 1 150.055 1.68125 -0.396574 1109.63 
213 2 150.095 1.64091 2.52219 1078.75 
214 2 149.82 -1.80662 -0.568016 1083.28 
215 2 146.547 1.65818 -0.679276 1091.73 
216 2 147.033 -1.62822 2.86513 1090.16 
217 1 152.823 -1.20392 -0.425937 1075.68 
218 1 152.814 1.67539 2.44313 1065.78 
219 1 155.612 -1.42043 2.31837 1073.84 
220 1 155.622 1.84153 -0.225088 1077.08 
221 2 155.317 1.76416 2.85928 1086.41 
222 2 155.421 -1.44757 -0.437599 1079.65 
223 2 152.657 1.4083 -0.766923 1096.47 
224 2 152.79 -1.25753 2.49979 1100.02 
225 1 158.607 -0.721586 -0.454599 1077.22 
226 1 158.389 1.88642 3.05162 1073.28 
227 1 161.426 -1.10017 2.67158 1053.36 
228 1 161.051 1.70341 -1.09222 1066.58 
229 2 161.341 1.54221 2.97241 1064.47 
230 2 161.021 -0.843828 -0.658187 1026.12 
231 2 158.435 1.76621 -0.765866 1056.67 
232 2 158.233 -0.821866 2.50487 1059.86 
233 1 164.23 -0.64845 -0.965209 1062.59 
234 1 164.009 1.95384 2.72614 1037.98 
235 1 167.14 -1.48797 3.18002 1038.04 
236 1 166.93 1.69284 -0.212153 1058.87 
237 2 167.194 1.59926 2.71607 1037.37 
238 2 166.75 -1.17262 -0.267962 1071.69 
239 2 164.377 1.78889 -0.93258 1050.29 
240 2 164.298 -1.61243 3.15964 1053.33 
241 1 169.872 -1.77133 -0.539806 1049.16 
242 1 169.776 2.11334 2.09019 1021.25 
243 1 172.583 -0.79568 2.61359 1046.25 
244 1 172.792 1.819 -0.492238 995.196 
245 2 172.453 1.69702 2.36062 1035.87 
246 2 172.797 -1.1307 -0.641678 1049.43 
247 2 169.938 1.32012 -0.516435 1043.33 
248 2 169.754 -1.66715 2.56233 1057.03 
249 1 175.245 -0.594987 -0.113479 1035.05 
250 1 176.226 1.89107 3.60232 1042.31 
251 1 178.246 -1.46724 2.00702 1022.02 
252 1 178.669 1.88938 -0.459321 1031.24 
253 2 178.71 1.77375 2.57433 1028.43 
254 2 178.99 -1.33081 -0.643803 1042.68 
255 2 176.14 1.53406 -0.951538 1047.95 
256 2 175.666 -1.05909 2.73965 1040.5 
257 1 181.34 -1.19796 -0.686904 1029.5 
258 1 181.591 1.01408 3.05322 1065.71 
259 1 184.507 -1.65788 2.30344 1012.91 
260 1 184.662 1.21943 -0.364814 1044.03 
261 2 184.135 1.13882 2.23502 1023.01 
262 2 184.083 -1.63109 -0.49242 1021.86 
263 2 181.667 1.7488 -0.346567 1025.45 
264 2 181.426 -2.05265 2.50932 1028.9 
265 1 187.799 -1.19369 -0.489434 1038.59 
266 1 187.074 1.9756 2.85994 1019.86 
267 1 190.127 -1.50413 2.60106 1025.44 
268 1 190.305 1.80443 -0.64996 1041.71 
269 2 190.082 1.69473 2.22779 1015.81 
270 2 190.177 -1.36779 -0.266358 1036.82 
271 2 187.369 1.73309 -0.222859 1032.53 
272 2 187.528 39.985 2.26507 1031.16 
273 1 193.213 -1.66588 -0.395444 1013.47 
274 1 193.089 1.21153 2.50598 1017.88 
275 1 195.803 -1.69387 2.91381 1007.22 
276 1 195.858 1.48114 -0.336303 1007.83 
277 2 195.556 1.53117 3.07541 1010.19 
278 2 196.164 -1.42353 -0.598535 1004.37 
279 2 193.14 1.58775 -0.580897 991.377 
280 2 193.128 -1.68637 2.87636 1019.18 
281 1 198.985 -1.46147 -0.759638 1038.55 
282 1 199.185 1.40069 2.74668 1022.79 
283 1 201.705 -1.61934 2.06676 1038.12 
284 1 202.053 1.37642 -0.838741 1005.09 
285 2 202.003 1.85484 2.19049 1017.5 
286 2 201.553 -1.25069 -0.529278 1013.05 
287 2 198.574 1.31969 -0.747788 1019.05 
288 2 198.576 -1.28467 2.63425 1010.16 
289 1 204.553 -1.52007 -0.593725 994.794 
290 1 204.654 1.86833 2.45636 1009.68 
291 1 207.076 -1.91479 1.75545 984.598 
292 1 207.309 0.922494 -0.691823 999.545 
293 2 207.272 1.57988 2.20433 1011 
294 2 206.902 40.1349 -0.617281 1025.07 
295 2 204.487 1.01138 -0.596668 1013.59 
296 2 204.354 -1.81067 2.70259 996.412 
297 1 210.382 -1.49532 -0.0423349 1004.26 
298 1 209.991 2.032 2.3479 1022.44 
299 1 213.003 -1.91945 2.18142 1016.22 
300 1 212.925 1.73193 -0.427738 1006.26 
301 2 212.895 1.33505 2.3351 1006.23 
302 2 212.6 40.1467 -0.522253 994.128 
303 2 210.242 1.23434 -0.35473 1021.19 
304 2 210.032 -2.02984 2.58441 994.669 
305 1 215.705 -1.48813 -0.905345 1002.65 
306 1 215.47 1.00109 2.9281 995.215 
307 1 219.069 -1.31816 2.05187 1007.98 
308 1 218.374 1.04848 -1.06801 1002.87 
309 2 218.739 1.23504 2.63734 1009.46 
310 2 218.616 -1.65284 -0.904679 984.204 
311 2 215.488 1.41853 -0.780236 1028.3 
312 2 215.564 -1.58211 2.29561 992.349 
313 1 221.546 -1.51938 -0.728191 1025.19 
314 1 221.652 1.60311 2.62783 994.268 
315 1 224.664 -1.92793 1.95703 1010.77 
316 1 224.923 1.48553 -0.577869 991.804 
317 2 224.355 1.43765 2.23008 991.533 
318 2 224.115 -1.24521 -0.589927 1003.53 
319 2 221.21 1.68844 -0.760484 1006.25 
320 2 221.46 -1.89666 2.15119 994.765 
321 1 227.782 -1.50091 -0.958804 994.706 
322 1 227.648 1.38686 2.00097 1001.09 
323 1 230.347 -1.96344 2.433 999.107 
324 1 230.658 1.23593 -0.854347 981.327 
325 2 230.213 1.80643 2.18116 985.281 
326 2 230.599 -1.81411 -0.217477 995.107 
327 2 227.527 1.71663 -0.843294 996.656 
328 2 227.338 -1.78164 1.54264 965.913 
329 1 233.454 -1.67094 -0.501696 974.523 
330 1 233.26 1.22846 2.35502 997.129 
331 1 236.242 -1.86146 2.05562 963.797 
332 1 236.491 1.76306 -0.391771 977.027 
333 2 236.793 0.891944 2.71323 985.142 
334 2 236.267 -1.88433 -0.571841 966.967 
335 2 233.466 1.39679 -0.333928 993.284 
336 2 233.301 -1.99265 2.37331 1001.64 
337 1 239.349 -1.52406 -0.742666 985.823 
338 1 239.422 1.31416 2.16912 964.655 
339 1 242.022 -1.61095 2.49066 968.25 
340 1 241.917 1.20568 -0.796667 975.092 
341 2 242.057 0.889753 2.51877 959.976 
342 2 242.357 -1.537 -0.759274 973.445 
343 2 239.121 1.46956 -0.951983 970.595 
344 2 239.378 -1.57859 2.10482 968.515 
345 1 245.215 -1.33729 -0.476 970.529 
346 1 244.701 1.09138 2.52077 936.191 
347 1 248.127 -1.60458 2.48766 960.343 
348 1 248.006 1.22592 0.0907993 963.247 
349 2 248.178 1.35065 2.64472 964.74 
350 2 247.784 -1.7819 -0.636271 959.805 
351 2 245.409 1.45873 -0.601385 963.507 
352 2 245.061 -1.70546 2.25605 949.876 
353 1 250.388 -1.72945 -0.624754 945.984 
354 1 251.072 1.6213 2.86855 969.336 
355 1 253.416 -1.70866 3.20363 944.198 
356 1 253.458 1.12552 -0.476732 938.506 
357 2 253.559 1.38253 2.39725 935.891 
358 2 253.168 -1.53011 -0.758349 944.497 
359 2 250.768 1.35543 -0.808742 951.585 
360 2 250.87 -1.46305 2.86622 956.769 
361 1 255.769 -1.64754 -0.656056 939.91 
362 1 256.649 1.19012 2.15742 932.451 
363 1 259.973 -1.54715 2.73041 950.554 
364 1 259.307 1.4449 -0.188985 937.075 
365 2 259.885 1.30444 2.60181 967.185 
366 2 259.719 40.1495 0.298045 940.132 
367 2 256.456 1.47311 -0.435756 932.68 
368 2 256.417 -1.32992 2.62475 942.141 
369 1 262.36 -1.25449 -0.163442 939.672 
370 1 262.214 1.63766 3.32307 936.362 
371 1 265.525 -2.06756 2.65292 930.754 
372 1 264.949 1.50013 0.27517 929.49 
373 2 264.771 1.53679 2.76061 942.073 
374 2 265.236 -1.48864 0.0895539 942.093 
375 2 262.119 1.47437 -0.209383 923.944 
376 2 262.62 40.1141 2.63489 924.152 
377 1 268.231 -1.22047 -0.658909 916.511 
378 1 267.587 1.28273 3.12454 936.599 
379 1 270.991 -1.75158 2.55313 924.015 
380 1 270.776 1.30643 -0.135789 922.839 
381 2 270.847 1.35075 2.67693 912.514 
382 2 270.923 -1.58585 -0.530279 914.726 
383 2 267.624 1.53329 -0.140881 925.339 
384 2 268.151 -1.5573 2.64436 922.505 
385 1 273.699 -1.49566 -0.273882 926.406 
386 1 273.779 1.45667 2.98255 920.512 
387 1 276.666 -1.9928 2.45031 911.809 
388 1 276.487 1.29864 -0.585083 919.115 
389 2 276.757 1.42321 3.26759 929.874 
390 2 276.759 -1.24464 -0.231693 933.639 
391 2 273.543 1.27589 -0.0904564 940.953 
392 2 274.125 -1.58336 2.72116 908.728 
393 1 279.543 -1.78606 -0.222566 925.446 
394 1 279.393 1.70248 2.79735 907.596 
395 1 282.278 -1.51257 2.96979 926.157 
396 1 282.349 1.10649 -0.31052 913.519 
397 2 282.169 1.43155 2.68171 915.068 
398 2 282.361 -1.60189 -0.157792 927.2 
399 2 279.308 1.40229 -0.41352 934.204 
400 2 279.225 -1.57901 2.83233 915.458 
401 1 -3.87543 4.46285 -0.251638 892.304 
402 1 -4.20842 7.11037 2.4377 918.71 
403 1 -0.856774 4.2107 2.8967 925.511 
404 1 -1.48397 7.40475 -0.244484 918.436 
405 2 -1.23725 7.10659 2.27454 911.182 
406 2 -1.25548 4.23514 -0.121847 903.65 
407 2 -4.07476 7.35699 -0.471003 924.827 
408 2 -4.14924 4.34524 2.55818 913.236 
409 1 1.7699 4.91379 -0.708864 905.625 
410 1 1.3209 7.59782 2.94158 910.765 
411 1 4.27554 4.4883 2.88872 916.699 
412 1 4.47792 7.52984 -0.0871041 936.805 
413 2 4.32587 7.57256 2.97545 908.711 
414 2 4.21979 4.67205 -0.417218 932.974 
415 2 1.66474 8.00227 -0.508688 910.261 
416 2 1.87572 4.63109 2.17986 909.002 
417 1 7.26303 4.21846 -0.632773 899.923 
418 1 7.19576 7.10558 2.88614 906.393 
419 1 10.024 4.14916 2.13958 924.645 
420 1 10.0737 8.09802 -0.468391 922.765 
421 2 10.0622 7.95948 2.44039 923.826 
422 2 9.95957 3.80207 -0.424294 923.286 
423 2 7.26577 7.98903 -0.0913565 924.004 
424 2 7.23804 4.35527 2.71718 914.415 
425 1 12.6566 4.63746 -1.0401 922.304 
426 1 12.8067 7.41734 2.05819 921.17 
427 1 15.1876 4.57967 3.10602 933.332 
428 1 15.706 7.50068 -0.762112 935.861 
429 2 15.4892 7.73633 3.27027 936.628 
430 2 15.5238 4.93037 -0.886264 921.035 
431 2 12.7762 7.68945 -0.505545 942.082 
432 2 12.7515 4.56949 2.29796 928.338 
433 1 18.5593 3.69407 -0.73266 928.58 
434 1 18.1543 7.11695 2.42334 913.339 
435 1 21.0692 4.37394 2.71126 940.377 
436 1 20.8918 7.19122 -0.522532 945.571 
437 2 21.0884 7.23522 2.21034 946.509 
438 2 21.485 4.19279 -0.312027 939.838 
439 2 18.2772 7.57309 -0.370859 935.068 
440 2 18.6477 3.73462 3.60105 944.169 
441 1 23.8529 4.19574 -0.47973 942.655 
442 1 24.6993 6.94854 2.35698 960.417 
443 1 27.61 4.77713 2.03247 938.017 
444 1 26.9548 7.64511 -0.680992 936.952 
445 2 27.344 7.26186 1.89148 953.351 
446 2 27.1122 3.99751 -0.580729 970.565 
447 2 24.4451 7.00589 -0.909469 956.994 
448 2 24.058 4.1685 2.2109 931.188 
449 1 30.3743 4.92606 -0.544181 954.199 
450 1 30.4648 7.40641 2.64018 946.664 
451 1 33.179 4.55086 2.36544 954.729 
452 1 33.4423 7.45649 -0.730782 979.608 
453 2 33.0133 7.88253 2.20752 968.204 
454 2 32.982 4.80966 -1.09402 958.17 
455 2 30.4785 7.6614 -0.616739 933.389 
456 2 30.5745 4.82574 2.49212 953.849 
457 1 36.5917 4.5646 -1.12242 978.059 
458 1 36.1959 8.60353 2.27324 939.246 
459 1 39.1765 5.30764 2.35738 960.186 
460 1 39.136 8.05012 -1.25242 977.776 
461 2 39.1387 8.48032 2.84725 942.951 
462 2 38.978 4.99204 -0.581824 957.183 
463 2 36.1858 7.95125 -0.65569 956.421 
464 2 36.5202 4.38031 2.22515 946.524 
465 1 42.0438 4.97253 -1.16649 974.934 
466 1 42.4136 7.87357 2.06662 988.282 
467 1 44.8386 5.13497 1.74283 974.476 
468 1 45.3269 7.8944 -0.489944 1000.26 
469 2 45.2178 7.81327 2.0118 972.064 
470 2 45.14 4.95898 -0.86398 952.577 
471 2 41.5915 8.01959 -1.17514 965.18 
472 2 41.9662 5.23965 1.60989 954.168 
473 1 47.9794 4.55687 -0.65407 977.71 
474 1 47.9846 7.6066 2.4052 979.486 
475 1 50.6458 4.78069 2.69205 984.699 
476 1 50.9376 7.67171 -0.500802 978.068 
477 2 50.6316 7.53683 2.51576 999.129 
478 2 50.4234 4.67557 -0.0976934 979.739 
479 2 48.2291 8.16609 -0.906289 968.694 
480 2 47.699 4.66796 2.15298 977.973 
481 1 54.4806 4.68029 -0.153318 997.273 
482 1 53.569 7.64878 2.51241 999.482 
483 1 56.4058 5.11412 2.70806 970.367 
484 1 56.7454 8.08244 -0.991617 962.873 
485 2 56.207 8.10523 2.63068 960.65 
486 2 56.9258 4.43397 -0.665433 977.778 
487 2 53.8482 7.09548 -0.457384 968.388 
488 2 54.0532 4.74086 2.63548 991.745 
489 1 59.1931 5.12689 -0.627732 978.106 
490 1 58.7329 8.17478 2.61524 973.736 
491 1 62.1861 5.3258 2.25498 974.757 
492 1 62.0506 8.6359 -0.644558 984.098 
493 2 61.474 8.55566 2.03868 1003.43 
494 2 62.1812 3.96469 0.102536 972.901 
495 2 59.6377 7.95398 -0.866556 985.431 
496 2 58.9978 5.51451 2.03644 984.621 
497 1 64.9623 4.90733 -0.129212 975.411 
498 1 64.8349 8.26362 2.14701 996.905 
499 1 68.1738 4.72681 1.88153 993.662 
500 1 67.3612 8.43166 -0.521571 1020 
501 2 67.7231 8.33956 2.4957 998.764 
502 2 67.5814 5.23092 -0.716237 1008.3 
503 2 64.8162 8.66193 -0.52192 1003.21 
504 2 64.9591 5.19799 2.24415 985.314 
505 1 71.3819 5.73691 -0.868911 999.66 
506 1 70.6191 8.058 2.81896 990.518 
507 1 73.7917 5.50255 2.41833 994.403 
508 1 74.1258 8.15352 -0.412549 1002.67 
509 2 73.9045 8.26012 2.36117 1009.53 
510 2 74.4353 4.85657 -0.779055 1029.86 
511 2 71.2738 8.42084 -0.496374 1012.04 
512 2 70.8355 5.39995 2.52909 994.873 
513 1 76.5892 5.33751 -0.5479 1024.72 
514 1 76.4396 8.6337 2.6486 997.11 
515 1 79.3526 5.28867 2.63837 994.525 
516 1 79.171 8.01301 -0.330192 1012.5 
517 2 79.1149 7.85732 2.33917 1004.24 
518 2 79.6111 4.75652 -0.675645 1021.77 
519 2 76.7212 8.39591 -0.884505 1002.71 
520 2 76.2063 4.83449 2.43037 1008.78 
521 1 82.1617 4.71606 -0.261176 1031.79 
522 1 82.9247 7.85933 2.17848 1034.49 
523 1 85.266 4.62778 1.99172 1012.82 
524 1 85.7669 7.85831 -0.480154 1041.52 
525 2 85.8068 7.82901 2.24264 1030.94 
526 2 85.5135 4.80681 -0.698486 1019.69 
527 2 82.272 7.6574 -0.167077 1026.46 
528 2 82.4796 4.78317 2.46326 1016.66 
529 1 88.022 4.24112 -1.40079 1026.26 
530 1 88.1649 7.63319 2.52616 1025.64 
531 1 90.4051 4.58003 1.81502 1034.98 
532 1 91.1308 7.29806 -0.935831 1004.57 
533 2 90.8017 7.58549 2.24108 1037 
534 2 91.4034 4.75964 -0.542049 1032.72 
535 2 88.6006 8.06302 -1.19813 1012.2 
536 2 88.0375 5.11189 2.46897 1034.36 
537 1 94.1926 4.76915 -0.433084 1044.41 
538 1 93.401 7.62034 2.24753 1021.49 
539 1 97.0598 4.96747 2.44965 1032.54 
540 1 96.387 7.8633 -0.330371 1021.28 
541 2 97.2261 7.89832 2.14925 1029.15 
542 2 96.9089 5.07158 -0.171123 1023.61 
543 2 93.7806 7.91095 -0.413908 1043.69 
544 2 93.7777 4.97359 2.40414 1031.26 
545 1 100.029 5.00284 -0.45484 1050.29 
546 1 99.9608 8.02317 1.85071 1033.09 
547 1 102.318 4.38642 2.28227 1047.78 
548 1 102.57 7.82282 -0.699432 1033.38 
549 2 102.765 7.55704 2.62312 1047.92 
550 2 102.938 5.42522 -0.10584 1034.42 
551 2 100.019 7.5924 -0.698493 1064.9 
552 2 99.7133 4.55706 2.31823 1040.5 
553 1 105.298 4.36369 -1.02723 1049.59 
554 1 104.89 7.55022 1.79167 1062.86 
555 1 108.395 4.76887 1.8328 1054.25 
556 1 107.946 7.74012 -0.578717 1060.96 
557 2 108.373 7.84631 1.85754 1032.45 
558 2 107.891 4.80397 -0.78528 1051.73 
559 2 105.215 8.42627 -0.974312 1043.49 
560 2 105.599 4.87777 2.27623 1050.17 
561 1 111.158 5.18568 -0.819669 1061.68 
562 1 111.405 8.21439 1.7953 1053.16 
563 1 113.886 4.33852 2.56685 1040.23 
564 1 114.063 7.61188 -1.00078 1056.72 
565 2 114.02 7.55307 2.46043 1057.91 
566 2 114.077 5.20453 -0.27642 1018.77 
567 2 111.076 7.76309 -1.0345 1064.74 
568 2 111.033 4.60793 2.32991 1069.94 
569 1 117.129 4.70157 -0.606791 1050.68 
570 1 116.756 7.88627 2.27434 1068.29 
571 1 120.161 4.75362 2.46972 1070.36 
572 1 119.927 7.25441 -0.59714 1053.53 
573 2 119.505 7.83794 2.15532 1062.64 
574 2 119.807 4.76484 -0.568016 1047.17 
575 2 117.254 7.99702 -1.22471 1071.59 
576 2 117.119 4.9349 2.21451 1062.07 
577 1 122.676 4.66826 -0.62166 1071.71 
578 1 122.976 7.07451 2.09206 1062.92 
579 1 125.87 4.35315 2.33708 1068.28 
580 1 126.118 7.33657 -0.518577 1038.13 
581 2 125.288 7.34231 2.42061 1069.46 
582 2 126.752 4.51732 -0.127596 1059.81 
583 2 122.833 7.20085 -0.842476 1073.35 
584 2 123.033 4.4149 1.82188 1069.86 
585 1 129.408 4.27603 -0.483583 1069.67 
586 1 129.129 7.43046 2.26814 1081.43 
587 1 132.137 4.82043 1.96005 1103.1 
588 1 131.844 7.31531 -0.710465 1104.04 
589 2 132.016 7.52702 2.27207 1062.11 
590 2 132.096 4.80447 -1.23298 1089.35 
591 2 129.104 7.75816 -0.132473 1073.65 
592 2 129.322 4.37888 2.4876 1080.94 
593 1 134.894 4.41006 -1.13878 1087.43 
594 1 134.779 7.7625 2.62693 1093.19 
595 1 137.6 4.0846 2.45848 1093.51 
596 1 137.726 7.32487 -0.434588 1091.92 
597 2 137.783 6.73169 2.88811 1062.05 
598 2 137.285 4.58609 -0.781077 1105.43 
599 2 135.087 7.36526 -0.834158 1092.61 
600 2 134.829 4.52015 1.89714 1072.75 
601 1 140.489 4.13468 -0.187873 1086.09 
602 1 140.335 8.01137 2.66723 1105.21 
603 1 143.377 4.84115 2.57635 1084.52 
604 1 143.708 7.50082 -0.386487 1072.11 
605 2 144.13 8.14047 1.91921 1080.09 
606 2 143.84 4.48401 -0.0966368 1116.87 
607 2 140.128 7.71387 -0.157669 1083.53 
608 2 140.61 4.42421 2.27698 1096.65 
609 1 146.452 4.17569 -0.332711 1091.77 
610 1 146.758 7.73101 2.55965 1081.81 
611 1 150.049 4.69643 2.55534 1094.64 
612 1 149.835 6.84474 -0.344683 1099.59 
613 2 149.776 7.04119 2.91461 1093.86 
614 2 149.988 4.02342 -0.241971 1089.54 
615 2 146.713 7.7853 -0.518619 1066.86 
616 2 147.098 4.97039 2.27107 1138.58 
617 1 152.62 4.22178 -0.432227 1083.82 
618 1 152.536 7.47885 3.44468 1104.21 
619 1 155.845 4.60948 2.3614 1068.23 
620 1 155.254 7.3851 0.211191 1108.92 
621 2 155.557 7.10356 2.82573 1090.25 
622 2 155.873 4.53152 -0.311366 1054.12 
623 2 152.686 7.49425 -0.386055 1085.56 
624 2 152.59 4.1436 2.0392 1076.94 
625 1 158.488 5.08095 -0.586999 1075.38 
626 1 158.45 8.01521 2.72665 1071.89 
627 1 161.182 4.85992 2.42527 1040.8 
628 1 161.278 7.76548 0.192461 1081.8 
629 2 160.912 7.87212 2.76385 1054.26 
630 2 161.576 4.94561 -0.495868 1043.72 
631 2 158.079 7.96896 -0.230971 1064.23 
632 2 158.726 4.57659 2.26619 1050.36 
633 1 164.434 4.64355 -0.643935 1052.78 
634 1 164.492 8.81274 2.62392 1056.84 
635 1 166.833 5.1198 2.50485 1040.98 
636 1 167.047 8.38567 0.000947317 1038.82 
637 2 166.855 8.52419 2.63618 1049.85 
638 2 167.074 4.67262 -0.148318 1041.37 
639 2 163.764 8.41835 0.074234 1063.6 
640 2 164.281 4.55579 2.37454 1033.16 
641 1 170.079 5.45883 -0.428541 1045.53 
642 1 169.579 8.76353 2.92542 1035.68 
643 1 172.967 4.41424 2.60391 1026.96 
644 1 172.926 8.32233 -0.785038 1032.65 
645 2 173.225 8.02278 1.79309 1036.4 
646 2 172.883 4.56554 -1.01923 1043.37 
647 2 169.607 8.46472 -0.759854 1054.08 
648 2 170.077 4.72334 2.33508 1025.15 
649 1 175.681 5.28157 -0.103101 1050.59 
650 1 175.869 8.38858 1.60408 1025.39 
651 1 178.856 5.21733 2.66064 1033.7 
652 1 178.632 7.97386 -0.329804 1037.65 
653 2 178.427 8.43815 2.45403 1011.91 
654 2 178.42 5.32347 0.0373381 1023.23 
655 2 175.656 7.85378 -0.824229 1073.7 
656 2 175.63 4.62226 2.56546 1018.53 
657 1 181.402 5.06786 -0.111577 1020.17 
658 1 181.219 7.79454 2.42008 1066.95 
659 1 184.084 4.60014 2.57524 1030.33 
660 1 184.108 7.83757 -0.809354 1030.45 
661 2 183.964 8.03961 2.8489 1025.36 
662 2 184.195 5.00621 -0.446982 1013.61 
663 2 181.613 7.78084 -0.509852 1042.08 
664 2 181.591 5.30732 3.00399 1041.53 
665 1 187.485 4.43605 -0.447249 1019.34 
666 1 186.886 7.72676 2.3455 1039.69 
667 1 189.789 4.15771 3.23292 1017.36 
668 1 190.229 7.54512 -0.166056 1020.44 
669 2 190.114 7.60023 2.67908 1026.53 
670 2 190.094 4.80263 -0.688533 1015.41 
671 2 187.296 8.09974 -0.2669 1027.06 
672 2 187.265 4.67397 2.76214 1012.92 
673 1 193.089 4.51977 -0.474903 1002.02 
674 1 192.984 7.69229 2.09353 1023.68 
675 1 195.876 4.30684 2.75686 1029.53 
676 1 196.053 7.2614 -0.144813 997.346 
677 2 196.308 7.22357 2.49079 1009.24 
678 2 196.056 4.58845 -0.357572 1005.38 
679 2 192.863 7.3805 -0.529154 1017.81 
680 2 193.278 4.20797 2.75047 1015.57 
681 1 198.63 4.11969 -0.761195 1027.2 
682 1 198.903 6.82472 2.15971 1023.16 
683 1 201.932 4.52502 2.40892 1017.22 
684 1 201.911 7.50085 -0.470173 1008.42 
685 2 201.659 7.09686 1.9557 1007.35 
686 2 202.114 4.77358 -0.73794 1011.55 
687 2 198.804 7.47583 -1.09036 1007.85 
688 2 198.962 4.2794 2.61378 1021.87 
689 1 204.552 4.19615 -1.16822 985.465 
690 1 205.049 7.5552 2.4161 1010.2 
691 1 207.282 4.6714 2.14757 1009.52 
692 1 207.713 7.40356 -0.846243 1024.71 
693 2 208.127 7.72573 2.78838 1029.86 
694 2 207.12 3.89511 -1.01598 1002.72 
695 2 204.865 7.29822 -0.131377 995.799 
696 2 204.472 4.98129 2.84867 1016.4 
697 1 210.498 4.16864 -0.907147 1005.62 
698 1 210.633 8.11545 2.57349 998.741 
699 1 212.798 4.90247 2.20217 1011.11 
700 1 213.509 7.8385 -0.870444 1004.44 
701 2 213.229 7.18223 2.70787 984.11 
702 2 213.548 4.35998 -0.633241 999.381 
703 2 210.45 7.31674 -0.621624 1030.97 
704 2 210.326 4.23774 2.19942 1005.04 
705 1 215.884 4.13113 -0.452219 987.679 
706 1 215.633 7.59526 1.88925 1032.68 
707 1 218.875 3.80225 2.36141 986.702 
708 1 218.541 8.19226 -1.27829 1021.93 
709 2 218.803 8.03572 2.41756 993.433 
710 2 218.514 4.08599 -0.578238 988.091 
711 2 216.333 8.01039 -0.68985 1001.07 
712 2 216.12 4.57504 2.26322 1005.76 
713 1 221.849 4.48382 -0.644667 995.663 
714 1 221.501 7.06602 2.67325 984.145 
715 1 224.572 4.26208 2.70654 1005.53 
716 1 224.216 7.62976 -0.889186 983.749 
717 2 224.363 7.67906 2.56898 976.858 
718 2 224.207 4.27706 -0.0635799 992.153 
719 2 221.613 7.71653 -1.40892 1013.42 
720 2 221.668 4.25668 2.52295 981.824 
721 1 227.941 4.54693 -0.574846 979.174 
722 1 227.444 7.41927 2.72434 1007.23 
723 1 230.959 4.22214 2.40957 993.355 
724 1 230.213 7.39301 -0.15536 972.753 
725 2 230.617 7.37242 2.76328 987.542 
726 2 230.534 4.77506 -0.257152 981.018 
727 2 227.72 7.50601 0.0151179 959.229 
728 2 227.103 4.14306 2.90292 985.719 
729 1 233.453 4.72041 -0.856231 983.936 
730 1 233.8 7.23577 2.57879 973.619 