ITEM: TIMESTEP
3500000
ITEM: NUMBER OF ATOMS
8400
ITEM: BOX BOUNDS pp pp pp
-5.9099547646241319e+00 2.8359995476463484e+02
-2.1446273254920634e+00 4.0174627325491812e+01
-1.7757301867509554e+00 1.6325730186751606e+01
ITEM: ATOMS id type x y z f_TolTpA 
1 1 -4.40511 -1.341 -0.403338 905.275 
2 1 -4.50914 1.81501 2.36279 894.879 
3 1 -1.54613 -0.98697 2.11886 909.339 
4 1 -1.67248 1.99114 -1.30347 904.099 
5 2 -1.81604 1.97375 1.31382 889.123 
6 2 -1.30898 -0.8879 -1.11974 890.745 
7 2 -4.65477 1.72214 -0.897862 892.947 
8 2 -4.34596 -1.13006 2.49204 905.421 
9 1 1.51584 -1.38386 -1.39616 898.87 
10 1 1.82615 1.39332 1.95251 891.282 
11 1 4.27927 -1.27436 1.46563 909.513 
12 1 4.23607 1.55751 -1.09204 913.574 
13 2 4.36534 1.55708 2.29128 913.163 
14 2 4.44751 -1.23844 -1.14961 917.769 
15 2 1.52419 1.88316 -1.11394 900.606 
16 2 1.35863 -1.27657 2.39059 893.519 
17 1 7.48247 -1.0291 -0.247452 910.597 
18 1 6.95232 1.79989 2.38489 913.911 
19 1 10.2803 -0.977717 2.3847 918.755 
20 1 10.1094 1.84292 -0.695078 914.112 
21 2 10.4999 1.51293 2.13187 904.95 
22 2 10.4137 -0.870682 -0.580017 930.362 
23 2 6.902 1.65506 -0.534703 915.08 
24 2 7.35096 -1.29182 2.62066 929.736 
25 1 13.3394 -1.41084 -0.78012 913.266 
26 1 13.0399 1.73019 2.11499 914.82 
27 1 15.5654 -1.01846 2.73289 941.586 
28 1 15.7455 1.55382 -0.671658 921.018 
29 2 15.6427 2.08145 2.63936 912.453 
30 2 15.862 -1.22153 -0.680451 942.076 
31 2 13.13 2.18446 -0.194927 923.775 
32 2 13.1132 -1.58668 2.40344 922.457 
33 1 18.7678 -1.342 -0.657585 918.62 
34 1 18.5091 1.43158 2.42123 916.736 
35 1 21.1909 -0.977676 2.40869 933.579 
36 1 21.4558 1.5643 -0.759994 942.267 
37 2 21.3591 1.96157 1.98089 942.225 
38 2 21.5888 -1.34158 -0.489426 938.017 
39 2 18.7208 1.65777 -0.606638 938.302 
40 2 18.5771 -1.04848 2.50038 940.339 
41 1 24.157 -1.3239 -0.885889 939.689 
42 1 24.046 1.4864 2.38094 935.331 
43 1 26.9033 -1.3623 2.52432 947.108 
44 1 26.7794 1.54834 -0.245149 941.052 
45 2 27.103 1.61861 2.46351 951.697 
46 2 26.8413 -1.59138 -0.713586 940.198 
47 2 24.5142 1.62635 -0.935795 937.378 
48 2 24.3287 -1.61935 2.84296 938.022 
49 1 29.9622 -1.30354 0.0399331 936.397 
50 1 30.5088 1.50153 2.77621 940.099 
51 1 32.6158 -1.3407 2.89747 944.821 
52 1 33.1151 1.24009 -0.565579 963.738 
53 2 32.7752 1.80747 2.26297 950.633 
54 2 32.9452 -1.50804 0.103527 939.606 
55 2 30.1379 1.27217 -0.402354 948.789 
56 2 29.9251 -1.34035 2.46401 944.264 
57 1 35.4096 -1.30514 -0.471053 952.548 
58 1 36.0041 1.62661 2.48626 956.094 
59 1 38.7993 -1.37887 2.56417 974.26 
60 1 38.2329 1.213 -0.570206 971.735 
61 2 38.8736 1.39178 2.86135 954.768 
62 2 38.306 -1.32658 -0.0760043 967.171 
63 2 35.5974 1.21479 -0.424126 960.12 
64 2 35.8846 -1.05004 2.64089 976.197 
65 1 41.2581 -1.89762 -0.148736 946.712 
66 1 41.3854 1.65611 2.52892 962.704 
67 1 45.1941 -1.74057 2.75291 960.612 
68 1 44.4988 1.07932 -0.623836 964.123 
69 2 43.8812 0.788051 2.74578 958.422 
70 2 44.3821 -1.68205 -0.57438 962.333 
71 2 40.9355 1.32819 -0.511615 955.021 
72 2 41.3567 -1.92269 2.9838 978.081 
73 1 47.9287 -1.85356 -1.08732 974.084 
74 1 47.8837 1.64965 2.07471 954.9 
75 1 50.7708 -1.46345 1.67512 986.894 
76 1 50.5635 1.78597 -0.714964 958.474 
77 2 50.4286 1.55678 2.30718 958.26 
78 2 50.7992 -1.76898 -0.964094 970.469 
79 2 47.9993 1.25025 -0.702888 962.55 
80 2 47.7778 -1.26636 2.70384 968.562 
81 1 53.6551 -1.30727 -0.957103 965.334 
82 1 53.4297 1.51593 2.87219 974.436 
83 1 56.3054 -1.55741 1.65372 1004.05 
84 1 55.8179 1.59887 -1.24239 989.816 
85 2 56.0339 1.5013 2.72766 976.945 
86 2 56.4626 -1.57137 -0.763209 986.44 
87 2 53.3522 1.5654 -1.08279 969.691 
88 2 53.2734 -1.43004 2.22019 989.419 
89 1 59.4065 -1.66061 -0.662256 1020.89 
90 1 59.1756 1.62052 1.87617 980.229 
91 1 62.2871 -1.34514 2.64656 1009.48 
92 1 62.0259 2.10682 -0.544436 1003.11 
93 2 61.7794 1.90934 2.55263 994.959 
94 2 61.9555 -1.83284 -0.751144 986.185 
95 2 59.3668 1.68206 -0.792452 1032.58 
96 2 59.2738 -1.25536 1.89551 998.366 
97 1 64.5027 -1.31216 -0.510732 995.412 
98 1 64.785 1.6941 3.03434 1017.91 
99 1 66.9882 -1.60081 1.94137 1017.49 
100 1 68.06 1.28493 -0.430407 998.807 
101 2 67.5396 1.05082 2.28041 971.101 
102 2 67.877 -1.84008 -0.359855 1006.81 
103 2 64.3886 1.22903 -0.426709 994.356 
104 2 64.8082 -0.891148 2.97991 987.443 
105 1 70.3461 -2.12299 -0.621544 1005.7 
106 1 70.2093 0.725528 2.62732 975.659 
107 1 73.501 -1.56588 2.57419 1010.09 
108 1 73.4044 1.20009 -0.349399 1016.21 
109 2 73.1573 1.60042 2.56777 1000.7 
110 2 73.6087 -1.69235 -0.667093 1008.95 
111 2 70.5276 1.20531 -0.296586 999.817 
112 2 70.9672 -2.07392 2.52871 995.19 
113 1 76.2432 -1.68707 0.0179791 1003.51 
114 1 76.6906 0.972946 2.96588 1006.19 
115 1 79.2416 -1.98771 2.54876 1001.28 
116 1 79.632 0.818354 -0.307708 1024.64 
117 2 79.215 0.826334 2.82758 991.576 
118 2 79.4724 -1.99541 -0.537352 1026.58 
119 2 76.3819 1.21366 -0.269907 1016.38 
120 2 76.3999 -1.79887 2.57355 1045.22 
121 1 82.124 -1.89739 -0.765163 1023.54 
122 1 82.4835 0.945369 3.05214 1018.76 
123 1 85.3266 40.124 2.54585 1037.6 
124 1 85.1842 0.93799 0.0563582 1018.15 
125 2 85.0581 0.569433 2.93161 1043.34 
126 2 84.8023 -2.11192 -0.126029 1037.81 
127 2 82.0394 1.30034 -0.785657 1020.15 
128 2 81.9461 -1.89684 2.49001 1018.03 
129 1 88.1129 -2.07075 -0.792129 1028.27 
130 1 88.0165 0.889035 3.23489 1013.52 
131 1 90.7434 -1.61562 2.70079 1021.06 
132 1 90.4133 1.18434 -0.731312 1008.68 
133 2 91.2642 1.01681 2.97715 1036.17 
134 2 90.7693 -1.80539 -0.158772 1026.88 
135 2 87.824 1.01289 -0.83355 1043.4 
136 2 87.9178 40.1714 2.97019 1041.78 
137 1 94.2157 -1.4671 0.0300199 1032.49 
138 1 93.9651 1.85617 2.52076 1034.03 
139 1 96.6953 -2.01268 2.91154 1037.46 
140 1 97.018 1.4197 -0.686482 1054.3 
141 2 96.7646 1.86646 2.32271 1030.38 
142 2 96.5496 -0.997867 0.187247 1028.97 
143 2 93.3332 1.53548 -0.186892 1000.94 
144 2 94.3299 -1.67977 3.45478 1038.96 
145 1 99.0417 -1.22483 -0.539426 1020.47 
146 1 99.96 1.10463 2.20699 1039.86 
147 1 102.648 -1.8815 2.66293 1044.99 
148 1 103.009 1.96125 -0.338159 1040.83 
149 2 102.616 1.20956 2.1948 1056.99 
150 2 102.14 40.1166 -0.286181 1049.69 
151 2 99.6377 1.36686 -0.252188 1035.86 
152 2 99.9188 -1.8816 3.32116 1034.38 
153 1 106.369 -2.11341 -0.895134 1030.36 
154 1 105.74 1.21558 2.2077 1048.89 
155 1 108.746 -1.71899 2.27088 1062.74 
156 1 107.822 1.18239 -1.0533 1046.29 
157 2 108.526 1.84166 1.69946 1054.32 
158 2 108.715 -1.49126 -0.489709 1046.61 
159 2 105.289 1.01758 -0.866525 1022.29 
160 2 106.117 -1.52334 2.44345 1030.24 
161 1 111.474 -1.66431 -0.276212 1044.43 
162 1 110.96 1.34706 2.42611 1046.14 
163 1 113.643 -2.11462 2.72487 1067.32 
164 1 114.357 1.21695 -0.395844 1073.65 
165 2 113.729 1.51721 2.40289 1047.04 
166 2 114.338 -1.51638 -0.458648 1048.39 
167 2 111.327 1.23818 -0.849315 1057.53 
168 2 111.173 -0.996047 2.77943 1046.93 
169 1 117.029 -1.62846 -0.301889 1069.74 
170 1 117.148 1.26884 2.72547 1048.86 
171 1 120.284 -1.79215 2.14056 1045.12 
172 1 119.568 0.845382 -0.753895 1064.04 
173 2 119.726 1.48436 2.05313 1046.27 
174 2 119.985 -1.93511 -0.554522 1081.18 
175 2 116.848 1.11415 -0.474131 1076.06 
176 2 116.883 -1.50065 3.08319 1080.73 
177 1 122.766 -2.10454 -0.58408 1064.58 
178 1 122.826 1.06804 2.62564 1066.59 
179 1 125.791 -1.57831 2.27216 1045.83 
180 1 125.336 1.03875 -0.476748 1058.67 
181 2 125.572 1.16353 2.70591 1053.08 
182 2 126.002 -1.72945 -0.343011 1064.05 
183 2 122.772 0.716557 -0.126553 1060.37 
184 2 123.133 -1.62603 2.18756 1053.07 
185 1 129.002 -1.36822 -0.485632 1054.95 
186 1 128.522 1.51184 2.79918 1094.86 
187 1 131.763 -1.58637 2.64966 1088.53 
188 1 131.498 1.36381 -0.393888 1075.22 
189 2 131.45 1.16301 2.54546 1107.42 
190 2 131.696 -1.73087 -0.72194 1075.53 
191 2 128.21 0.98493 -0.707041 1088.88 
192 2 129.118 -1.53196 1.85964 1068.8 
193 1 134.35 -1.47026 -0.251601 1055.14 
194 1 135.431 1.02669 2.6267 1096.58 
195 1 138.07 -1.60731 2.56282 1095.3 
196 1 137.786 0.969111 -0.750486 1112.38 
197 2 138.041 1.11035 2.80086 1112.94 
198 2 137.112 -1.33823 -0.100201 1119.5 
199 2 134.798 1.28605 -0.26653 1073.55 
200 2 134.726 -1.31943 2.9487 1096.61 
201 1 140.97 -1.7597 -0.379949 1106.1 
202 1 140.573 1.76996 2.65592 1111.03 
203 1 143.608 -1.07499 2.11422 1121.71 
204 1 144.098 1.71146 -0.624809 1120.85 
205 2 143.478 1.66896 2.07757 1100.06 
206 2 143.824 -1.57581 -0.67766 1093.8 
207 2 140.85 0.929265 -0.860517 1121.77 
208 2 140.952 -1.61706 2.84331 1104.89 
209 1 146.661 -0.954022 -1.15974 1093.47 
210 1 146.683 1.92395 2.27804 1076.91 
211 1 149.559 -1.42423 1.93215 1092.34 
212 1 150.301 1.83147 0.0609414 1107.81 
213 2 149.199 2.01133 2.41933 1080.25 
214 2 149.697 -1.42147 -1.0247 1067.79 
215 2 146.577 1.79414 -0.617499 1110.3 
216 2 147.203 -0.919282 1.66428 1074.46 
217 1 152.496 -1.91773 -0.553937 1084.14 
218 1 152.474 0.974877 2.88783 1085.36 
219 1 155.814 -1.79173 2.51429 1100.15 
220 1 155.558 1.33618 -0.891129 1060.39 
221 2 155.406 1.56161 2.62228 1076.38 
222 2 155.846 -1.72281 -0.569803 1067.14 
223 2 152.785 0.945603 -0.963696 1071.28 
224 2 152.723 -1.31296 2.18973 1060.97 
225 1 158.469 -1.77845 -0.398729 1083.91 
226 1 158.174 1.80442 1.93837 1056.67 
227 1 160.964 -1.43901 2.58926 1095.68 
228 1 161.253 1.42225 0.0292874 1073.57 
229 2 161.335 1.55748 2.50632 1079.67 
230 2 161.128 -1.4779 -0.673303 1079.95 
231 2 158.413 1.31453 -0.528063 1047.93 
232 2 158.423 -1.5575 2.37455 1069.05 
233 1 164.131 -1.4761 -0.685249 1079.67 
234 1 164.007 1.37414 2.741 1072.83 
235 1 166.893 -1.2005 2.23694 1075.22 
236 1 167.044 2.491 -0.671456 1051.7 
237 2 167.13 1.84253 2.41299 1073.36 
238 2 166.764 -1.44565 -0.729401 1055.54 
239 2 164.141 1.40142 -0.0427322 1045.38 
240 2 164.186 -1.61074 2.44399 1065.4 
241 1 170.276 -1.81787 -0.55716 1058.73 
242 1 169.854 1.83608 2.48489 1061.69 
243 1 172.8 -1.46808 2.40456 1053.05 
244 1 172.85 1.68302 -0.648278 1066.05 
245 2 172.437 1.69024 2.44023 1071.52 
246 2 172.782 -1.3793 -1.10484 1052.37 
247 2 170.02 1.71642 -0.533071 1067.3 
248 2 170.514 -1.74397 1.91329 1067.68 
249 1 175.358 -1.43296 -0.695694 1056.8 
250 1 175.269 1.6159 2.42915 1032.43 
251 1 178.031 -1.33993 2.14441 1020.63 
252 1 178.427 1.77595 -0.442233 1053.04 
253 2 178.334 2.03654 2.2898 1063.15 
254 2 178.073 -1.0846 -0.616033 1029.17 
255 2 175.464 1.65598 -0.342314 1064.64 
256 2 175.446 -1.47956 2.85747 1043.8 
257 1 180.989 -1.3418 -0.975632 1055.64 
258 1 181.015 2.24663 1.86146 1056.87 
259 1 184.43 -0.951467 2.36746 1022.68 
260 1 183.719 1.89398 -0.42104 1040.52 
261 2 183.831 1.66929 2.69877 1014.57 
262 2 183.569 -0.950626 -0.180373 1048.77 
263 2 181.254 2.34194 -0.580746 1042.3 
264 2 181.311 -1.6876 2.48875 1048.67 
265 1 187.568 -1.33897 -0.40502 1028.24 
266 1 187.845 1.6646 2.9765 1031.68 
267 1 190.472 -1.61339 2.73993 1001.61 
268 1 190.048 2.01475 -0.542855 1031.82 
269 2 190.478 1.89711 2.84293 1028.03 
270 2 190.379 -1.46638 0.132888 1035.08 
271 2 187.805 1.46122 0.131893 1056.69 
272 2 187.044 -1.11785 2.9345 1027.82 
273 1 192.881 -0.53971 -0.424167 1020.36 
274 1 193.329 1.85285 2.49015 1024.22 
275 1 195.781 -1.64501 2.76034 1023.42 
276 1 196.238 1.6632 -0.230463 1012.07 
277 2 195.826 2.21571 2.33733 1023.88 
278 2 196.07 -0.841906 -0.253585 1012.83 
279 2 192.992 1.92059 -0.371395 1028.56 
280 2 193.209 -0.671918 2.45494 1019.98 
281 1 198.942 -0.721666 -0.604262 1029.02 
282 1 198.683 2.22919 2.3737 985.663 
283 1 201.74 -1.32464 2.32017 1024.96 
284 1 201.837 1.95413 -0.438375 999.177 
285 2 201.538 1.21662 1.99038 993.193 
286 2 201.98 -1.27939 -0.820593 1010.4 
287 2 199.201 1.75153 -0.545447 1004.97 
288 2 198.483 -1.73209 2.76284 1018.58 
289 1 204.794 -1.71538 -0.822011 981.708 
290 1 204.566 1.70908 2.53578 997.925 
291 1 207.442 -1.36256 2.28998 994.303 
292 1 207.049 1.87555 -0.743371 993.432 
293 2 207.417 1.71482 3.00776 1009.69 
294 2 207.448 -0.822752 -0.456871 979.76 
295 2 204.541 2.14771 -1.18815 981.382 
296 2 204.479 -1.38152 2.64542 975.404 
297 1 210.593 -1.68196 -0.968833 990.802 
298 1 210.462 2.49716 3.18605 998.721 
299 1 213.06 -1.05889 2.28526 997.268 
300 1 213.018 2.14747 -0.646159 1007.13 
301 2 213.113 2.13585 2.6599 981.52 
302 2 213.089 -1.25154 -0.724401 1004.22 
303 2 210.536 2.56051 -0.771075 983.956 
304 2 210.536 -1.62235 2.54832 986.528 
305 1 215.438 -0.788695 -0.227956 1001.59 
306 1 215.771 2.09487 2.68337 995.04 
307 1 218.719 -0.855615 2.84848 981.447 
308 1 218.603 2.22593 -0.795566 980.844 
309 2 219.365 2.46426 2.56345 967.745 
310 2 218.931 -1.05111 -0.869977 962.642 
311 2 215.936 1.77273 -0.271269 968.956 
312 2 215.745 -0.604405 2.71147 987.783 
313 1 221.914 -0.821835 -0.128539 971.674 
314 1 221.757 2.12743 2.94472 981.442 
315 1 224.631 -0.44368 2.91828 975.97 
316 1 224.497 1.97246 -0.722186 988.215 
317 2 224.855 2.29939 2.74109 975.976 
318 2 224.456 -0.920007 -1.10647 991.563 
319 2 221.908 1.94303 -0.625497 970.019 
320 2 221.802 -0.605728 2.53574 973.094 
321 1 227.54 -0.715832 -0.667753 977.214 
322 1 227.527 1.84952 2.16166 987.036 
323 1 230.84 -0.914895 2.13738 983.426 
324 1 230.306 2.1304 -0.840835 1007.17 
325 2 230.083 2.17657 2.11116 958.208 
326 2 230.499 -0.584216 -0.491293 999.046 
327 2 227.259 2.07219 -0.737836 976.107 
328 2 227.175 -0.680146 1.94296 993.887 
329 1 233.783 -0.706089 -0.344085 964.318 
330 1 233.573 2.38378 2.53348 983.076 
331 1 236.898 -0.811892 2.498 991.224 
332 1 236.998 2.03297 -0.28097 987.311 
333 2 236.892 2.06913 2.42677 957.654 
334 2 236.863 -0.873437 -0.31002 966.642 
335 2 233.651 1.87839 -0.162472 978.993 
336 2 233.621 -0.794467 2.48717 954.031 
337 1 239.566 -1.18692 -0.815727 980.279 
338 1 239.637 2.00852 1.90938 976.098 
339 1 242.313 -0.929376 1.82748 953.245 
340 1 242.368 1.98125 -0.952069 965.61 
341 2 242.587 1.95337 1.58519 985.19 
342 2 242.227 -0.716209 -0.812081 979.447 
343 2 239.546 1.67283 -0.731151 978.489 
344 2 239.692 -0.464827 1.88517 964.01 
345 1 245.084 -0.382041 -0.613341 961.874 
346 1 245.568 2.09914 2.16515 972.599 
347 1 248.692 -0.754745 2.57429 955.536 
348 1 248.365 2.2014 -0.488876 950.074 
349 2 248.568 1.97349 2.30108 963.44 
350 2 247.969 -0.911468 -0.73789 952.769 
351 2 245.736 2.01482 -0.719725 966.542 
352 2 245.449 -1.06451 2.13808 934.711 
353 1 251.026 -0.91264 -0.943819 965.323 
354 1 251.313 1.94008 1.87467 948.727 
355 1 253.955 -0.669227 2.33557 969.552 
356 1 254.002 1.56979 -0.510081 945.187 
357 2 253.675 2.15281 2.56145 941.612 
358 2 253.605 -1.06436 -0.274012 954.332 
359 2 251.512 2.1854 -0.771994 955.969 
360 2 251.019 -0.737305 2.07065 951.882 
361 1 257.156 -1.21495 -0.534523 943.676 
362 1 256.881 1.76746 2.72662 941.064 
363 1 259.289 -1.02735 2.87294 945.762 
364 1 259.672 1.26292 -0.546873 930.421 
365 2 259.336 1.71234 2.01063 940.691 
366 2 259.438 -1.60158 -0.0432726 939.338 
367 2 256.951 1.61165 -0.652101 961.245 
368 2 256.764 -1.11733 2.4231 968.501 
369 1 262.409 -1.34486 -0.557606 949.05 
370 1 262.138 1.61186 2.03212 932.69 
371 1 265.257 -1.11235 2.61301 960.045 
372 1 265.476 2.02781 -0.537032 926.548 
373 2 265.263 1.58264 2.49691 940.826 
374 2 265.223 -1.25993 -0.267066 946.79 
375 2 262.701 1.86237 -0.538769 933.572 
376 2 261.938 -1.10267 2.32708 953.676 
377 1 267.788 -0.644381 -0.487744 932.72 
378 1 267.89 1.8355 2.87481 943.609 
379 1 270.38 -1.40279 2.33062 921.539 
380 1 270.906 1.54523 -0.708396 926.54 
381 2 271.018 1.77756 2.29788 911.049 
382 2 270.654 -1.19566 -0.821875 924.158 
383 2 268.175 2.00173 -0.659535 947.01 
384 2 267.794 -0.831698 2.5131 912.936 
385 1 274.065 -1.02714 -0.814587 924.809 
386 1 273.376 1.50418 2.01508 922.72 
387 1 276.383 -0.604563 2.22243 923.155 
388 1 276.961 1.77146 -0.428149 909.136 
389 2 276.652 2.03912 2.63034 919.914 
390 2 276.517 -1.36039 -0.503673 908.004 
391 2 273.741 1.82139 -0.589034 929.572 
392 2 273.641 -1.02966 2.17502 930.34 
393 1 279.28 -1.63342 -0.339204 940.157 
394 1 279.414 2.10345 2.51146 926.172 
395 1 281.68 -0.320126 2.35302 917.429 
396 1 282.415 2.21336 -1.14794 899.816 
397 2 282.185 2.15179 2.65954 909.095 
398 2 282.037 -1.0388 -0.555165 904.019 
399 2 279.724 2.05944 -0.362463 907.174 
400 2 279.203 -0.629462 2.57306 920.091 
401 1 -4.27901 4.95422 -0.89752 910.83 
402 1 -4.4758 7.74492 2.74454 893.997 
403 1 -1.37303 4.546 1.8572 895.17 
404 1 -1.5915 7.93494 -0.649081 911.763 
405 2 -1.67675 8.12897 2.3422 897.72 
406 2 -1.9842 4.94842 -0.913901 907.563 
407 2 -4.23145 7.71307 0.0174639 930.123 
408 2 -4.31632 4.78168 2.84742 901.475 
409 1 1.30097 4.19749 -0.950097 915.384 
410 1 1.48361 7.55241 2.37927 915.632 
411 1 3.89519 4.54389 2.25626 903.927 
412 1 4.07825 7.45364 -0.931052 907.463 
413 2 4.33414 7.17747 2.68935 926.316 
414 2 4.0519 4.53323 -0.649376 921.668 
415 2 1.19323 7.70591 -0.442235 905.103 
416 2 1.2242 4.87235 2.29223 902.478 
417 1 7.00708 4.72299 -1.09726 920.841 
418 1 7.27529 7.14456 2.16811 922.244 
419 1 9.78405 4.54032 1.93918 927.177 
420 1 9.99495 7.55922 -0.867851 910.75 
421 2 9.46105 7.5781 3.06022 933.668 
422 2 9.63901 4.777 -0.88627 941.068 
423 2 6.73355 7.55989 -0.643275 899.285 
424 2 7.25215 4.23265 2.33669 937.203 
425 1 13.1465 4.57516 -0.287208 922.001 
426 1 12.7582 7.67353 3.09087 939.069 
427 1 16.1935 5.08799 2.37941 914.192 
428 1 15.809 7.6651 -0.462944 918.69 
429 2 15.6437 7.79648 2.33326 924.978 
430 2 16.0803 4.82546 -0.250996 936.388 
431 2 12.7336 7.77664 -0.873237 919.412 
432 2 13.1874 4.83009 2.66136 937.935 
433 1 19.0962 4.25703 -0.950188 921.231 
434 1 18.7055 7.7064 2.22527 912.591 
435 1 21.4764 4.4717 2.28876 946.031 
436 1 21.6349 8.24368 -0.170235 917.109 
437 2 21.3086 7.80363 2.44951 928.11 
438 2 21.7016 4.76472 -0.707497 953.233 
439 2 18.6713 8.16811 -0.495825 954.887 
440 2 18.8932 5.01696 2.27174 922.796 
441 1 24.1772 4.5814 -0.622139 942.737 
442 1 24.2944 7.35849 2.75364 938.929 
443 1 26.8717 5.05761 3.00117 953.157 
444 1 27.1762 7.75309 0.177184 955.52 
445 2 27.3179 7.55263 2.6635 924.656 
446 2 26.9937 4.44175 -0.426088 940.762 
447 2 24.1054 7.96081 -0.0354838 931.499 
448 2 24.1955 4.68622 2.61142 939.812 
449 1 30.8368 3.82292 -0.165677 947.569 
450 1 30.1416 7.79436 2.42496 936.765 
451 1 33.1871 4.71713 2.75545 943.26 
452 1 32.9425 7.374 -0.155848 939.474 
453 2 33.09 7.8414 2.50149 935.257 
454 2 33.5321 4.31716 -0.077237 952.022 
455 2 30.3673 7.76128 -0.364369 964.409 
456 2 30.0135 4.8469 2.73025 946.988 
457 1 36.1676 5.27713 -0.448918 958.717 
458 1 35.8823 7.47123 2.60776 965.45 
459 1 38.5357 4.66608 2.9681 960.235 
460 1 39.04 7.86039 -0.291086 937.478 
461 2 38.7634 7.34773 2.33373 944.066 
462 2 38.4625 4.64546 -0.19718 952.7 
463 2 35.6027 7.67186 -0.498357 967.526 
464 2 35.8197 4.81032 2.87531 936.876 
465 1 41.5825 4.43775 -0.345759 956.025 
466 1 41.6441 7.13568 2.38829 962.667 
467 1 44.7231 4.1082 3.29871 964.596 
468 1 44.3684 7.25463 -0.569764 925.668 
469 2 44.1168 7.61341 3.15596 930.599 
470 2 44.5417 4.4305 -0.712866 945.128 
471 2 41.6788 7.35492 -0.752531 950.938 
472 2 42.1775 4.26968 2.66315 964.113 
473 1 47.0379 4.67789 -0.352276 949.167 
474 1 47.3392 7.11148 2.47068 943.787 
475 1 50.5962 4.76812 2.54205 960.158 
476 1 50.244 7.29902 -0.925205 953.311 
477 2 50.6842 7.32949 2.61519 965.466 
478 2 50.1639 4.68671 -0.596267 968.009 
479 2 47.1006 7.33834 -0.0638245 948.299 
480 2 47.1878 4.41792 2.3899 944.192 
481 1 53.1418 4.0248 -0.595229 972.235 
482 1 53.3621 7.12172 2.35138 982.16 
483 1 56.0939 4.01958 1.81894 963.713 
484 1 56.4153 7.50441 -0.0489851 990.018 
485 2 56.1988 7.16723 2.38544 989.638 
486 2 56.1726 4.3389 -0.967421 975.811 
487 2 53.3477 6.93352 -0.889665 983.431 
488 2 53.1618 4.13511 2.18165 978.178 
489 1 59.3978 4.44718 -0.671719 984.387 
490 1 59.3295 7.27643 2.4776 996.9 
491 1 62.3757 4.32213 2.91774 991.297 
492 1 62.5498 7.60535 -0.619872 979.508 
493 2 62.262 6.93279 3.34085 976.648 
494 2 62.0385 5.16976 -0.383642 999.756 
495 2 59.0581 7.41213 -0.347305 1011.36 
496 2 58.779 4.43578 2.43095 1004.65 
497 1 64.8622 4.79866 -0.74895 984.987 
498 1 65.2082 7.24873 3.2241 992.751 
499 1 67.5678 4.49132 1.9836 982.86 
500 1 67.6541 7.37553 -0.51993 1001.61 
501 2 67.617 7.4851 2.30372 1004.62 
502 2 67.4909 4.35383 -0.346308 991.82 
503 2 65.1711 7.84992 -0.749993 988.725 
504 2 64.9398 4.3256 2.85646 970.514 
505 1 70.8907 4.81995 -0.21907 995.099 
506 1 70.3415 7.45783 2.66812 1019.62 
507 1 73.8451 4.13973 2.75019 999.177 
508 1 73.7719 6.87726 0.245097 994.459 
509 2 73.7148 6.9298 2.80943 999.112 
510 2 73.5367 4.20507 -0.153693 1009.51 
511 2 70.5233 7.38029 -0.318982 991.418 
512 2 70.7168 5.04268 2.39929 1015.58 
513 1 76.5864 4.17532 -0.318715 1010.08 
514 1 76.9114 6.77735 2.87958 998.665 
515 1 79.8534 3.26934 3.40517 1001.66 
516 1 79.3261 6.54848 -0.563462 1005.42 
517 2 79.5551 6.30685 3.11011 1011.38 
518 2 79.1867 3.71196 -0.746899 1002.13 
519 2 76.517 6.71419 -0.00672265 1018.79 
520 2 76.6648 3.93577 2.83399 994.911 
521 1 81.6418 3.90205 -0.91771 1004.25 
522 1 82.1823 7.27866 2.60602 1009.89 
523 1 85.2594 4.5502 2.44676 1006.21 
524 1 85.2347 6.84541 -0.350272 1012.21 
525 2 85.0247 7.04288 2.80965 1022.98 
526 2 85.4253 4.06516 -0.442007 1013.17 
527 2 82.3498 6.48415 -0.106617 1028.16 
528 2 82.0891 3.335 2.74024 1018.24 
529 1 88.0139 4.3321 -0.220434 1032.58 
530 1 88.2706 7.03404 2.77499 1019.75 
531 1 90.9301 3.85676 2.63155 1037.92 
532 1 90.597 7.1604 -0.349997 1027.91 
533 2 91.0965 7.4321 2.68156 1023.08 
534 2 90.8087 4.35807 -0.446941 1022.59 
535 2 87.7662 7.51223 -0.536273 1038.27 
536 2 87.8799 4.28385 2.24851 1032.24 
537 1 93.6573 4.52975 -0.424947 1013.87 
538 1 94.0376 7.43001 2.08488 1031.33 
539 1 97.6595 4.15932 2.18619 1039.89 
540 1 97.0528 7.81718 -0.316339 1038.82 
541 2 97.4057 7.28248 2.71239 1039.06 
542 2 96.3758 4.67874 -0.338084 1041.3 
543 2 94.101 7.56436 -0.558271 1019.9 
544 2 93.6883 4.38023 3.39919 1027.01 
545 1 100.26 4.08548 -0.652126 1031.72 
546 1 100.304 7.66599 2.44426 1034.29 
547 1 103.069 4.9246 2.3522 1044.4 
548 1 102.862 7.61539 -0.701592 1024.77 
549 2 102.849 7.8305 3.17995 1056.96 
550 2 103.02 4.6927 -0.530197 1048.05 
551 2 100.057 7.79019 -0.185266 1014.91 
552 2 100.243 4.55617 1.81394 1045.79 
553 1 105.786 4.69266 -1.05219 1060.27 
554 1 105.88 7.83793 2.80729 1049.96 
555 1 108.491 4.23476 2.27453 1065.47 
556 1 108.421 7.29919 -0.819888 1062.65 
557 2 108.663 7.63655 2.00329 1037.55 
558 2 108.471 4.25206 -0.988638 1056.76 
559 2 105.468 8.01911 -0.954186 1062.48 
560 2 105.714 4.4057 2.05458 1040.53 
561 1 111.457 4.11839 -0.922924 1051.7 
562 1 111.334 6.85618 2.21545 1070.96 
563 1 114.457 4.09915 2.76078 1052.37 
564 1 113.579 7.07027 -0.676211 1069.25 
565 2 114.071 7.09341 1.6234 1065.96 
566 2 114.704 4.36986 -0.896404 1046.32 
567 2 111.132 7.51167 -0.849876 1051.56 
568 2 111.095 4.31672 2.54135 1076.51 
569 1 117.551 4.22921 -0.481028 1075.22 
570 1 117.173 6.91255 2.49294 1044.97 
571 1 119.941 3.97139 2.26954 1058.96 
572 1 120.325 7.42576 -0.230406 1078.86 
573 2 120.046 6.70744 2.50881 1067.22 
574 2 120.378 4.0992 -0.68798 1052.14 
575 2 117.827 7.45928 -0.552859 1066.54 
576 2 116.858 4.067 2.64757 1059.59 
577 1 123.019 4.10731 -0.414425 1064 
578 1 122.73 7.65542 2.33387 1051.67 
579 1 125.895 4.24863 2.55475 1062.05 
580 1 126.317 7.74281 -0.3926 1053.26 
581 2 125.515 7.57143 2.46154 1085 
582 2 125.853 4.51296 -0.539445 1084.01 
583 2 123.433 8.17078 -0.660835 1084.16 
584 2 122.961 4.23943 2.27904 1054.65 
585 1 128.709 3.93901 -0.653412 1077.32 
586 1 128.936 7.04714 2.4408 1093.64 
587 1 131.998 3.61737 2.75182 1090.56 
588 1 132.02 6.71727 -0.441827 1065.43 
589 2 132.028 6.80931 2.66473 1095.21 
590 2 131.494 3.89962 -0.254133 1089.84 
591 2 129.359 7.54586 -0.290243 1083.04 
592 2 128.746 4.32744 2.08872 1083.02 
593 1 135.086 4.26487 0.0446931 1089.26 
594 1 135.072 6.95018 3.14827 1094.34 
595 1 137.933 3.86024 2.87149 1129.78 
596 1 137.851 7.04286 -0.248541 1083.04 
597 2 137.476 6.31396 2.45752 1081.29 
598 2 137.758 3.95306 -0.153904 1075.59 
599 2 134.403 6.40294 -1.20918 1076.09 
600 2 135.121 3.90462 2.70613 1085.74 
601 1 140.558 4.10087 -0.643581 1106.7 
602 1 140.291 7.41628 2.30931 1110.17 
603 1 144.132 4.55701 2.1298 1102.95 
604 1 143.657 7.81824 -0.621628 1118.63 
605 2 143.638 7.95811 2.26469 1064.8 
606 2 143.711 4.92363 -0.435397 1123.79 
607 2 140.51 7.8742 -0.791562 1117.43 
608 2 140.797 4.31627 1.91357 1125.63 
609 1 147.423 4.59122 -0.723186 1097.55 
610 1 146.687 7.43728 2.48735 1116.45 
611 1 150.253 4.44375 3.24751 1080.25 
612 1 149.674 7.00547 -0.251257 1077.92 
613 2 149.762 7.71468 2.63281 1072 
614 2 149.876 4.25792 -0.485183 1106.87 
615 2 146.752 7.61436 -0.111676 1114.82 
616 2 146.877 4.65084 2.43536 1098.67 
617 1 152.749 5.00623 -0.306471 1106.52 
618 1 152.969 7.46079 2.40693 1083.53 
619 1 155.37 4.10203 2.94604 1091.76 
620 1 155.599 7.59975 -0.473909 1080.52 
621 2 155.505 7.64222 2.32116 1093.9 
622 2 155.38 4.74695 -0.573958 1079.95 
623 2 152.381 7.54797 -0.878623 1099.91 
624 2 152.852 4.84769 2.76683 1096.01 
625 1 157.899 5.35382 -0.627801 1063.89 
626 1 158.766 7.35288 2.55847 1050 
627 1 161.42 4.51278 2.65328 1085.07 
628 1 161.664 7.95617 0.105327 1088.2 
629 2 161.578 7.24486 3.02794 1076.66 
630 2 160.735 4.0911 0.050751 1060.31 
631 2 158.599 7.8089 0.139684 1047.41 
632 2 157.712 4.82434 2.7958 1065.65 
633 1 164.078 4.50719 -0.160617 1062.62 
634 1 164.201 7.80605 2.80263 1062.3 
635 1 166.935 4.9029 2.32138 1070.46 
636 1 166.808 7.74268 -0.275197 1058.27 
637 2 166.755 7.66038 2.50649 1076.94 
638 2 166.803 4.90702 -0.506897 1054.68 
639 2 164.062 7.64617 -0.501849 1056.4 
640 2 164.288 4.39807 2.39917 1060.65 
641 1 170.007 4.40568 -0.641921 1062 
642 1 170.046 7.31049 2.42314 1045.8 
643 1 172.405 4.35156 2.75574 1080.22 
644 1 172.806 7.64052 -1.02679 1023.8 
645 2 172.575 6.93536 2.64561 1043.88 
646 2 172.602 4.54209 -0.460534 1037.61 
647 2 169.921 7.29198 -0.546771 1031.8 
648 2 169.529 4.75454 2.45572 1050.18 
649 1 175.236 4.49898 -0.398322 1051.41 
650 1 175.229 7.17643 2.44256 1049.27 
651 1 178.332 4.58005 2.5451 1052.22 
652 1 178.628 7.97156 -0.489948 1047.15 
653 2 177.932 7.61277 2.41668 1027.6 
654 2 178.908 5.23584 -0.0660649 1034.46 
655 2 175.58 7.02797 -0.84451 1037.02 
656 2 175.663 4.37654 3.04082 1064.95 
657 1 181.701 5.03438 -0.359102 1052.67 
658 1 181.343 7.23179 2.08781 1028.75 
659 1 184.422 4.55476 2.71126 1032.72 
660 1 184.632 7.37402 -0.934747 1023.33 
661 2 184.343 7.12505 2.43866 1026.04 
662 2 184.11 5.07993 -0.18508 1031.65 
663 2 181.431 7.86596 -0.411104 1015.57 
664 2 180.92 4.60715 3.0221 1041.73 
665 1 187.709 4.49321 -0.0457767 1017.19 
666 1 187.449 7.75598 2.50742 1017.84 
667 1 190.609 4.43742 2.66065 1019.34 
668 1 190.303 7.6701 -0.514156 1009.09 
669 2 190.038 7.82653 2.79263 1012.22 
670 2 190.479 4.69465 0.0179941 1038.23 
671 2 187.016 7.35977 -0.537532 1015.36 
672 2 187.589 4.38941 2.72407 1007.56 
673 1 192.951 4.49155 -0.570345 1032.58 
674 1 192.73 8.27542 2.10408 1032.33 
675 1 195.554 4.81335 2.9578 1018.96 
676 1 195.436 8.03 -0.236057 1015.47 
677 2 195.864 8.12146 2.29025 1023.31 
678 2 195.935 4.7791 -0.333338 1031.94 
679 2 192.88 8.15038 -0.673442 1032.36 
680 2 193.064 5.22332 2.8358 1031.33 
681 1 198.625 4.6587 -0.406995 1013.34 
682 1 198.599 8.21742 2.53943 998.018 
683 1 201.504 5.07355 2.16198 982.383 
684 1 201.81 7.64893 -0.536663 1001.32 
685 2 201.782 7.78831 2.46501 976.12 
686 2 201.887 4.90684 -0.688058 1003.41 
687 2 198.867 7.59458 -0.272203 988.837 
688 2 198.705 5.0039 2.76883 991.905 
689 1 204.495 5.16119 -0.643572 974.845 
690 1 204.618 7.74435 2.75794 1018.36 
691 1 207.619 4.49969 2.39217 988.222 
692 1 207.682 8.16961 -0.098575 986.873 
693 2 207.745 8.0711 2.48356 999.485 
694 2 207.528 5.02069 -0.274642 1005.2 
695 2 204.795 8.16324 -0.312267 1026.76 
696 2 204.537 4.08937 2.19128 991.108 
697 1 210.049 5.07503 -1.23129 990.448 
698 1 210.26 7.88222 3.23174 1029.99 
699 1 213.088 5.03803 2.46796 1003.46 
700 1 212.845 7.68005 -0.663918 984.892 
701 2 213.258 7.96272 2.63433 992.842 
702 2 213.235 5.23215 -0.502954 994.073 
703 2 210.091 7.42534 -0.978945 1002.24 
704 2 210.257 5.11735 2.74944 990.418 
705 1 215.858 5.13088 -0.536324 974.988 
706 1 215.821 7.70073 2.6478 1003.03 
707 1 219.085 5.42753 2.24616 1013.56 
708 1 218.521 7.78662 -0.224317 997.425 
709 2 218.331 7.91904 2.36222 996.869 
710 2 218.718 5.19049 -0.586451 992.829 
711 2 215.911 7.8234 -0.263462 988.915 
712 2 216.068 4.92644 2.35376 995.405 
713 1 221.947 5.14451 -0.311529 993.926 
714 1 222.295 7.39984 2.64291 1002.77 
715 1 225.386 5.29922 2.87022 973.052 
716 1 224.682 7.86581 -1.41076 952.293 
717 2 224.867 7.66952 2.04725 981.879 
718 2 224.994 5.21864 -1.18077 977.382 
719 2 221.649 7.82666 -0.598768 988.191 
720 2 222.018 4.84018 2.34162 1004.03 
721 1 227.741 5.28364 -0.997179 1004.84 
722 1 227.558 7.89877 1.9336 983.879 
723 1 230.285 5.44809 1.87375 967.654 
724 1 231.277 8.09623 -0.888959 977.514 
725 2 230.642 8.22759 2.0156 985.926 
726 2 230.889 5.01726 -0.887113 982.13 
727 2 227.83 7.92507 -1.01782 988.447 
728 2 227.835 5.27486 2.60988 980.001 
729 1 233.752 4.96802 -0.399314 974.799 