ITEM: TIMESTEP
4000000
ITEM: NUMBER OF ATOMS
8400
ITEM: BOX BOUNDS pp pp pp
-5.9099547646241319e+00 2.8359995476463484e+02
-2.1446273254920634e+00 4.0174627325491812e+01
-1.7757301867509554e+00 1.6325730186751606e+01
ITEM: ATOMS id type x y z f_TolTpA 
1 1 -4.08373 -2.0069 -0.340594 902.801 
2 1 -4.33669 1.10919 2.29181 923.642 
3 1 -1.31793 40.042 2.65797 916.736 
4 1 -1.4582 1.24355 -0.289392 908.746 
5 2 -1.68494 1.00362 2.76285 903.821 
6 2 -1.30389 -1.777 -0.106051 914.086 
7 2 -4.40326 1.24205 -0.392868 913.221 
8 2 -4.17431 -1.79497 2.66758 907.492 
9 1 1.36522 -1.68664 -0.269925 928.06 
10 1 2.18801 0.879087 2.69653 911.178 
11 1 4.27359 40.1606 2.44158 913.364 
12 1 4.63241 0.972652 -0.556738 909.068 
13 2 4.83296 0.913709 2.21305 928.621 
14 2 4.41635 -1.66401 -0.76223 919.671 
15 2 1.61729 1.24704 -0.13288 918.774 
16 2 1.27097 -1.76924 3.0311 926.287 
17 1 7.46744 -1.84863 -0.769483 910.668 
18 1 7.35085 1.22299 1.81143 930.638 
19 1 10.2921 -1.78478 2.8328 920.436 
20 1 9.95192 1.50083 -0.477202 918.872 
21 2 9.80143 1.03093 2.40935 930.376 
22 2 10.5991 -1.69726 -0.652073 936.138 
23 2 7.45209 1.49848 -0.815752 910.734 
24 2 7.29716 -1.77518 2.20689 930.3 
25 1 12.8423 -1.54318 -0.139508 907.109 
26 1 12.9977 1.33857 2.71802 948.814 
27 1 16.0353 -1.55567 2.6993 906.152 
28 1 16.0379 1.10907 0.0899203 928.328 
29 2 15.9596 1.67872 2.92994 945.723 
30 2 15.8237 -1.8214 0.0792109 941.917 
31 2 13.1404 1.57648 -0.324487 924.564 
32 2 13.0317 -1.54582 2.51227 920.375 
33 1 18.6513 -1.51861 -0.178125 925.135 
34 1 18.9572 1.88362 2.78451 934.132 
35 1 21.3624 -1.09563 2.99231 923.306 
36 1 21.5473 1.20251 -0.297502 927.19 
37 2 21.7975 1.75049 2.92186 944.264 
38 2 21.4123 -1.74594 0.124465 937.604 
39 2 18.7948 0.869055 0.216029 944.16 
40 2 18.8764 -1.37276 3.50986 942.446 
41 1 24.851 -1.75245 -0.729095 919.754 
42 1 24.5447 1.06707 2.81015 956.12 
43 1 27.4286 -1.14008 2.7939 952.983 
44 1 27.3168 1.68788 -0.580337 914.52 
45 2 27.3004 1.66288 2.60069 963.489 
46 2 27.2241 -1.82008 -0.508557 951.666 
47 2 24.427 0.808816 -0.0751287 955.376 
48 2 23.9908 -1.33005 3.37166 941.629 
49 1 30.0958 -1.27558 -0.285296 959.299 
50 1 29.9512 1.89651 2.88954 962.576 
51 1 32.8983 -1.18708 2.69178 965.837 
52 1 33.1079 2.16605 -0.401451 943.022 
53 2 32.8103 1.88987 2.92715 937.027 
54 2 33.1927 -1.59107 0.280539 960.673 
55 2 30.3255 1.70806 -0.101033 958.779 
56 2 30.0109 -1.53402 2.84089 966.684 
57 1 36.0502 -1.51371 -0.106704 973.366 
58 1 35.3821 1.33941 2.73107 972.21 
59 1 38.9413 -1.77746 2.45854 964.055 
60 1 38.4518 1.32843 0.245455 982.687 
61 2 39.3476 1.26082 2.72999 972.788 
62 2 39.0028 -1.34592 -0.289459 970.512 
63 2 35.5273 1.41746 -0.0315406 942.67 
64 2 36.3591 -1.49511 2.38124 961.755 
65 1 41.7816 -1.67639 -0.495936 996.753 
66 1 41.9828 0.814546 3.07591 983.371 
67 1 44.8762 -1.15051 2.28233 1005.06 
68 1 44.7081 1.8189 -0.313789 967.176 
69 2 44.6515 1.49609 2.84087 968.218 
70 2 44.7001 -1.7799 -0.366876 988.409 
71 2 41.7148 1.04949 -0.389093 979.306 
72 2 41.9476 -1.58044 2.80435 961.743 
73 1 47.1219 -1.78854 -1.09347 992.883 
74 1 47.4707 1.25515 2.2801 969.063 
75 1 50.9254 -1.6763 2.5308 963.402 
76 1 50.219 1.21098 -0.364418 978.304 
77 2 50.0092 1.8883 2.46335 972.271 
78 2 50.7651 -1.39434 -0.460585 963.052 
79 2 47.6066 1.56186 -0.530128 982.547 
80 2 47.6533 -1.59811 2.61536 959.472 
81 1 53.8865 -1.01574 -0.336722 990.196 
82 1 53.2153 1.94505 2.42931 967.851 
83 1 55.847 -1.78284 2.56413 996.309 
84 1 55.9799 2.1306 -0.38052 980.687 
85 2 56.2198 1.99983 2.47807 983.781 
86 2 56.07 -1.81 -0.520289 990.924 
87 2 53.3882 1.76275 -0.0510693 993.707 
88 2 53.4686 -1.13353 2.51791 999.728 
89 1 59.0868 -1.03668 -0.538838 987.071 
90 1 59.2251 2.08519 2.69223 995.6 
91 1 61.9151 -0.768631 2.4962 987.79 
92 1 62.1426 2.00946 -0.757747 1000.76 
93 2 62.1119 1.85178 2.61034 1002.13 
94 2 62.4448 -0.657551 -0.919697 973.73 
95 2 58.8554 1.93871 -0.246991 981.843 
96 2 58.909 -0.914745 2.57941 966.995 
97 1 65.2032 -0.813084 -0.237867 987.744 
98 1 64.8506 1.96957 2.0352 998.369 
99 1 68.1311 -0.909738 2.50263 984.117 
100 1 67.8292 2.3736 -0.370034 991.983 
101 2 68.0922 1.80996 2.61299 991.348 
102 2 67.7324 -1.02929 -0.24334 979.324 
103 2 65.0492 1.81079 -0.310092 1008.82 
104 2 64.9824 -0.762315 2.47237 966.08 
105 1 69.9993 -0.458776 -0.713325 988.774 
106 1 71.0071 2.06945 2.21193 995.627 
107 1 73.0573 -0.999766 2.20068 1012.35 
108 1 73.2052 2.09688 -1.11508 1006.51 
109 2 73.3259 2.48968 2.15685 999.168 
110 2 73.8489 -0.914392 -0.745354 980.711 
111 2 70.5144 2.15596 -0.575469 1001.84 
112 2 70.5192 -1.22015 2.22737 982.786 
113 1 76.5864 -0.772411 -0.29023 1011.99 
114 1 75.6724 2.02569 2.46477 998.291 
115 1 78.9984 -1.07095 3.23273 1009.01 
116 1 79.0444 2.06904 -0.250921 1008.56 
117 2 79.7761 1.81065 2.68464 1018.67 
118 2 78.8926 -0.819235 0.45444 999.943 
119 2 76.1865 1.87015 -0.418525 1010.14 
120 2 75.9124 -0.576107 2.80094 970.503 
121 1 81.6176 -0.74627 0.0254133 977.307 
122 1 82.3963 1.78196 2.75671 1008.71 
123 1 85.0317 -1.26211 1.89916 1009.25 
124 1 85.7188 1.45256 -0.895527 1024.34 
125 2 85.1333 1.41256 2.37095 1005.48 
126 2 85.6338 -1.16192 -0.828395 1000.32 
127 2 81.5834 2.22435 -0.580243 991.053 
128 2 82.6636 -0.98162 2.28021 1017.19 
129 1 88.5274 -1.23561 -1.03204 1018.18 
130 1 87.8727 1.6435 2.3958 1014.35 
131 1 90.6307 -1.06354 1.89862 1017.84 
132 1 90.7702 1.65794 -1.08591 1048.32 
133 2 90.7301 1.87364 2.7852 1043.89 
134 2 91.0378 -1.22079 -0.904039 1031.53 
135 2 88.0388 1.71472 -0.315071 1025.4 
136 2 87.9097 -1.35675 2.55834 1017.05 
137 1 93.9812 -1.14658 -0.370074 1032.77 
138 1 93.591 1.73718 2.22141 1014.34 
139 1 96.7005 -1.202 1.97338 1031.5 
140 1 96.6923 1.92185 -0.712675 1033.1 
141 2 97.1203 1.66305 2.27036 1038.98 
142 2 96.6577 -1.17865 -0.679064 1038.96 
143 2 93.7058 1.40718 -0.767196 1034.71 
144 2 93.778 -1.0739 2.17193 1012.32 
145 1 99.0709 -1.12538 -0.507118 1042.16 
146 1 99.6917 1.62765 2.21688 1021.67 
147 1 102.754 -1.17076 1.82829 1026.26 
148 1 102.486 1.99363 -0.234026 1022.34 
149 2 102.614 2.10872 2.46905 1027.18 
150 2 102.541 -0.961529 -0.972547 1027.36 
151 2 99.6407 1.81025 -0.200713 1015.88 
152 2 99.2774 -1.14279 2.31119 1036.44 
153 1 105.88 -1.45875 -1.27014 1031.67 
154 1 105.645 1.7782 2.65496 1022.27 
155 1 108.851 -0.826857 1.51324 1030.38 
156 1 108.12 1.85291 -1.0938 1036.13 
157 2 108.225 1.84977 2.05814 1056.95 
158 2 109.084 -0.744726 -0.915743 1064.3 
159 2 105.289 1.51643 -0.758176 1018.79 
160 2 105.703 -0.976474 1.91888 1044.18 
161 1 111.849 -0.519041 -1.38966 1046.51 
162 1 111.522 1.80254 1.98037 1027.07 
163 1 114.966 -0.978945 2.30442 1064.96 
164 1 114.707 2.21746 -0.462506 1043.84 
165 2 114.18 2.52328 2.44153 1051.34 
166 2 115.035 -0.210432 -0.89747 1026.11 
167 2 111.457 2.08262 -1.06827 1040.04 
168 2 112.021 -0.920056 2.53251 1042.3 
169 1 117.658 -0.629514 -1.07134 1041.97 
170 1 117.35 1.83855 2.43578 1043.29 
171 1 119.963 -1.18915 3.01689 1052.73 
172 1 120.477 1.74842 15.923 1067.3 
173 2 120.287 1.49409 1.99092 1072.99 
174 2 120.399 -0.700585 -1.38646 1082.06 
175 2 117.477 2.15685 -1.09647 1064.29 
176 2 117.401 -0.981936 2.01641 1049.61 
177 1 122.772 -0.913517 -0.890081 1060.87 
178 1 122.764 1.40559 1.41582 1088.68 
179 1 125.505 -0.929573 2.00743 1069.88 
180 1 126.005 1.99819 -0.714447 1057.51 
181 2 125.859 1.72847 1.95203 1059.85 
182 2 126.313 -0.950773 -0.945207 1057.2 
183 2 122.72 2.00853 -0.97959 1061.29 
184 2 122.945 -1.1985 1.82468 1039.07 
185 1 129.093 -0.2715 -0.757613 1060.71 
186 1 129.049 1.86556 2.19882 1077.38 
187 1 132.167 -0.454504 1.90133 1086.51 
188 1 132.201 2.25519 -0.710536 1078.72 
189 2 132.419 2.4468 2.05889 1074.58 
190 2 132.089 -0.843633 -0.70031 1069.9 
191 2 128.816 2.26374 -0.460401 1079.06 
192 2 128.886 -0.743 1.71807 1075.49 
193 1 134.774 -0.948499 -0.58889 1078.9 
194 1 134.777 2.4183 2.50079 1094.07 
195 1 137.638 -0.581764 2.36697 1092.78 
196 1 137.616 2.23551 -0.401221 1085.75 
197 2 137.843 2.28404 2.37902 1112.9 
198 2 137.448 -0.883227 -0.497944 1060.4 
199 2 134.869 2.14801 -0.658987 1070.55 
200 2 134.854 -0.970655 2.23511 1081.62 
201 1 140.732 -0.546779 -0.54837 1089.84 
202 1 140.725 1.93584 2.34708 1115.87 
203 1 143.38 -1.23624 1.73412 1111.61 
204 1 144.051 2.09772 -1.43235 1061.93 
205 2 143.586 1.5543 1.7056 1095.42 
206 2 143.202 -1.32996 -0.72208 1080.02 
207 2 140.918 2.03318 -0.768358 1104.53 
208 2 140.625 -0.968069 2.45057 1099.73 
209 1 146.028 -0.917837 -1.36228 1086.44 
210 1 146.44 0.964362 1.83904 1070.59 
211 1 149.2 -1.24897 1.15735 1065.65 
212 1 149.621 1.44183 -0.782203 1066.49 
213 2 149.355 1.58343 1.84379 1073.17 
214 2 149.136 -1.34589 -1.18051 1070.06 
215 2 146.759 1.43525 -0.897024 1070.03 
216 2 145.911 -1.66143 1.5183 1082.9 
217 1 151.871 -1.29924 -1.65919 1095.46 
218 1 151.752 1.67932 1.9356 1082.34 
219 1 154.738 -0.858279 1.73471 1079.91 
220 1 155.044 1.5403 -1.10358 1062.22 
221 2 155.046 1.55081 2.25101 1044.6 
222 2 154.989 -1.03755 -1.24657 1077.99 
223 2 152.511 1.60391 -1.05188 1078.97 
224 2 152.159 -1.2741 1.68745 1083.51 
225 1 157.93 -1.51272 -1.53903 1060.81 
226 1 157.949 2.04385 1.3895 1070.02 
227 1 160.735 -1.82901 2.19104 1064.8 
228 1 161.184 0.751712 -1.24586 1063.59 
229 2 160.412 1.75214 2.08674 1067.52 
230 2 160.756 -1.63542 -0.972634 1096.17 
231 2 158.043 1.72401 -1.04697 1074.05 
232 2 158.015 -1.33622 1.5815 1071.67 
233 1 163.56 -1.33828 -1.17432 1059.87 
234 1 163.187 1.68023 2.16361 1076.82 
235 1 166.65 -1.25104 1.56728 1051.16 
236 1 166.287 1.96848 -0.865711 1034.19 
237 2 166.352 1.60523 2.31465 1043.89 
238 2 166.302 -1.61965 -1.11758 1046.32 
239 2 163.634 1.19134 -0.820446 1073.54 
240 2 163.71 -1.53226 2.51964 1076.69 
241 1 169.778 -1.16189 -0.651156 1060.39 
242 1 169.273 1.50768 2.51274 1038.84 
243 1 171.878 -1.56874 1.60609 1041.75 
244 1 172.667 2.1749 -0.945869 1028.42 
245 2 172.46 1.71344 1.92381 1003.47 
246 2 172.724 -0.848872 -0.86144 1049.74 
247 2 169.568 1.54679 -0.714878 1056.27 
248 2 169.55 -1.00834 2.04637 1035.64 
249 1 175.518 -1.14525 -0.473976 1030.24 
250 1 174.925 2.08185 1.72471 1038.93 
251 1 178.352 -1.73307 2.17877 1069.63 
252 1 178.771 1.19936 -0.64915 1054.77 
253 2 178.68 2.09741 2.15655 1042.4 
254 2 178.265 -1.23264 -0.439301 1067.53 
255 2 175.415 2.36859 -1.1774 1068.28 
256 2 175.743 -0.883569 2.30127 1060.29 
257 1 181.169 -1.54999 -0.603629 1039.37 
258 1 181.493 1.13107 2.72193 1030.61 
259 1 184.292 -1.4489 2.38713 1044.01 
260 1 184.244 1.40625 -0.789087 1073.34 
261 2 184.687 1.56328 2.31806 1055.15 
262 2 184.503 -1.49385 -0.81436 1038.9 
263 2 181.197 1.09852 -0.368968 1052.96 
264 2 181.919 -1.40083 2.31885 1043.69 
265 1 187.168 -1.48297 -1.049 1026.12 
266 1 186.949 1.29813 1.72104 1048.23 
267 1 189.959 -1.29459 2.59334 1030.78 
268 1 190.345 0.876168 -0.44185 1030.48 
269 2 189.633 1.30737 2.36148 1026.44 
270 2 190.177 -1.85978 -0.78911 1030.82 
271 2 187.109 1.72938 -0.789622 1062.86 
272 2 187.125 -1.57567 2.25219 1039.05 
273 1 193.09 -1.54514 -0.621797 1013.19 
274 1 192.917 1.87729 2.41624 1023.85 
275 1 195.935 -1.38474 2.67756 1015.2 
276 1 195.504 1.71921 -1.26598 1024.34 
277 2 195.569 1.68687 3.16494 1006.58 
278 2 195.84 -1.29557 -0.410533 1025.66 
279 2 193.17 1.09523 -0.835017 1039.88 
280 2 192.655 -1.01448 2.23006 999.112 
281 1 198.312 -1.26025 -0.0776019 1008.21 
282 1 198.545 1.75904 2.19674 1020.51 
283 1 201.164 -0.94331 2.54172 1030.23 
284 1 201.277 1.61135 -1.44952 1008.06 
285 2 201.489 1.62135 2.7029 1024.35 
286 2 201.525 -0.766043 -0.792176 1023.39 
287 2 198.637 1.6194 -0.535394 996.34 
288 2 198.506 -0.709769 2.44138 1012.13 
289 1 204.217 -0.733969 -0.157982 1029.61 
290 1 204.193 1.75826 2.70672 1020.14 
291 1 207.608 -1.598 3.02756 1021.7 
292 1 207.928 0.864895 -0.214559 1007.84 
293 2 208.255 1.5718 2.36106 1033.45 
294 2 207.82 -1.52525 -0.749711 1012.64 
295 2 204.163 1.75037 -0.814584 1005.97 
296 2 203.934 -0.593803 2.53355 1020.78 
297 1 210.742 -1.43843 -0.431073 1012.13 
298 1 210.773 1.21317 1.72973 993.39 
299 1 213.099 -1.91223 2.48791 1007.62 
300 1 214.157 1.71211 -0.859715 1001.31 
301 2 213.719 1.38759 1.90654 1028.1 
302 2 213.404 -1.94918 -0.165339 983.341 
303 2 210.892 1.27563 -1.04569 1005.05 
304 2 210.386 -1.80713 2.57508 987.103 
305 1 216.376 -1.65939 0.118429 1014.77 
306 1 216.412 1.68471 2.58073 1014.47 
307 1 218.768 40.0278 2.7201 1000.07 
308 1 219.555 0.864791 -0.486913 996.087 
309 2 218.838 1.37121 2.58044 993.724 
310 2 219.009 -1.83227 -0.556223 1009.35 
311 2 216.76 1.62402 -0.766901 985.019 
312 2 216.315 40.0064 2.92783 978.406 
313 1 221.811 40.039 -0.850916 1003.08 
314 1 222.099 1.00531 2.72035 1002.95 
315 1 224.68 -1.37321 2.04673 1004.83 
316 1 225.191 0.922938 -0.757562 1016.19 
317 2 224.823 1.37548 3.14756 1012.4 
318 2 225.105 -1.66999 -0.701326 994.436 
319 2 222.331 1.19491 -0.534779 986.29 
320 2 221.69 -1.55826 1.97983 1012.74 
321 1 227.665 -1.74302 -0.516108 1016.3 
322 1 227.625 0.844379 2.93912 999.318 
323 1 230.422 -1.79361 2.34636 998.226 
324 1 230.268 1.47837 0.126873 982.271 
325 2 230.326 1.22217 2.75554 999.304 
326 2 230.403 -1.78535 -0.716608 998.822 
327 2 227.65 1.26081 0.349524 997.724 
328 2 227.363 -1.8398 2.52076 985.952 
329 1 233.14 -2.04691 -0.57648 968.926 
330 1 233.541 1.56683 3.00976 1016.51 
331 1 236.278 -1.83726 2.87128 982.988 
332 1 236.513 0.968549 0.191406 983.637 
333 2 236.049 1.39404 2.95501 989.772 
334 2 235.97 -1.66432 0.291711 965.267 
335 2 233.51 0.95053 -0.356696 982.415 
336 2 233.047 -1.63317 2.45417 997.906 
337 1 238.644 -1.7025 -0.474935 974.22 
338 1 239.008 1.33087 2.84666 984.762 
339 1 242.359 -1.95643 2.69602 964.476 
340 1 242.394 1.48944 0.29748 955.994 
341 2 242.243 1.51437 2.91831 994.496 
342 2 242.093 -1.51068 0.216314 983.583 
343 2 239.224 1.22741 -0.204572 949.683 
344 2 239.051 -2.00862 2.76655 975.642 
345 1 244.86 -1.53421 0.0769058 946.918 
346 1 245.093 1.95965 2.4213 970.366 
347 1 247.949 -0.989783 2.89238 959.313 
348 1 248.214 1.53714 0.311895 949.713 
349 2 247.594 1.74524 3.11283 962.399 
350 2 247.6 -1.25986 0.379057 945.989 
351 2 244.893 1.7987 -0.429174 970.692 
352 2 245.026 -1.43044 2.71257 960.087 
353 1 250.897 -1.73296 -0.0402019 955.521 
354 1 251.065 1.50774 2.66137 954.522 
355 1 253.597 -2.12195 3.15559 969.072 
356 1 253.765 0.456844 0.302149 957.65 
357 2 253.767 1.12028 2.77348 953.116 
358 2 253.815 -1.9769 -0.199853 952.754 
359 2 250.797 1.26315 0.0320167 951.28 
360 2 251.429 -1.76983 2.7542 953.878 
361 1 256.734 -1.68607 -0.381595 916.92 
362 1 256.897 1.24085 2.98286 954.473 
363 1 259.694 -1.81778 2.93752 950.27 
364 1 259.837 1.59428 -0.337801 954.516 
365 2 259.787 1.56733 2.71853 963.811 
366 2 259.927 -1.50121 -0.0282266 962.556 
367 2 256.724 1.0302 -0.408266 951.644 
368 2 256.604 -1.67295 2.8732 972.466 
369 1 262.671 -1.61793 -0.113004 948.356 
370 1 262.639 0.974422 2.77617 940.928 
371 1 265.2 -1.05266 2.98568 938.429 
372 1 265.401 1.8023 0.190157 937.379 
373 2 264.911 1.51399 2.80209 953.496 
374 2 265.699 -1.19339 0.245017 934.517 
375 2 262.572 1.19404 -0.177395 940.212 
376 2 262.587 -1.68701 2.60219 965.056 
377 1 268.334 -1.49185 -0.253404 918.549 
378 1 268.71 1.49689 3.15389 939.829 
379 1 270.747 -1.36568 2.53647 935.62 
380 1 271.622 1.9353 0.327874 932.841 
381 2 271.165 1.45506 2.674 956.842 
382 2 270.889 40.0163 -0.169841 930.644 
383 2 268.622 1.54217 0.0519965 937.812 
384 2 268.164 -1.17127 2.81575 928.983 
385 1 274.231 -2.10522 -0.19489 939.444 
386 1 274.395 1.19413 2.68794 928.421 
387 1 276.736 39.8734 2.52937 908.973 
388 1 276.82 1.25388 -0.263707 935.153 
389 2 277.187 1.26417 2.87103 915.586 
390 2 276.778 -1.97577 0.31477 928.992 
391 2 274.387 1.81064 0.294924 941.773 
392 2 274.045 40.0871 3.02142 928.853 
393 1 280.031 -2.10282 -0.13402 930.757 
394 1 280.209 0.677257 2.80318 925.712 
395 1 282.791 -2.05495 2.80051 946.593 
396 1 282.481 1.45531 -0.487261 920.29 
397 2 282.918 0.91701 2.28206 940.193 
398 2 282.763 40.1178 -0.406344 930.686 
399 2 280.119 0.943844 -0.0580951 929.995 
400 2 279.551 -2.12537 2.37344 910.844 
401 1 -4.00238 4.16853 -0.57503 891.153 
402 1 -4.22371 8.04869 2.03025 893.302 
403 1 -1.9923 4.21234 2.59855 915.877 
404 1 -1.20716 7.02882 -0.671402 900.24 
405 2 -1.73626 7.13741 2.52977 918.944 
406 2 -1.45746 4.02569 -0.261944 929.157 
407 2 -4.21508 7.80473 -0.894646 885.841 
408 2 -4.53513 4.52566 2.29666 925.054 
409 1 1.95098 3.79179 -0.114533 913.314 
410 1 1.8389 7.15551 2.66368 927.649 
411 1 4.4878 3.9764 2.97251 911.298 
412 1 4.6183 7.00401 -0.237963 916.629 
413 2 4.54379 6.74871 2.76383 916.338 
414 2 4.59677 4.3257 -0.190418 923.861 
415 2 1.79077 7.14458 -0.293777 900.543 
416 2 1.77262 4.29896 3.28316 939.023 
417 1 6.99262 4.38917 -0.636424 925.231 
418 1 7.2562 7.3048 3.1895 906.139 
419 1 9.93771 4.403 2.65293 942.561 
420 1 10.328 6.76711 -0.249199 917.331 
421 2 10.0857 7.28636 3.20267 904.091 
422 2 10.5418 4.23634 -0.139749 921.618 
423 2 7.55708 6.81463 -0.530639 910.111 
424 2 7.26054 4.4747 2.91534 909.57 
425 1 13.1251 4.49335 -0.18511 923.254 
426 1 12.9972 7.49507 3.16107 927.248 
427 1 15.7053 4.88948 3.01689 945.455 
428 1 15.8098 7.52879 0.279075 912.688 
429 2 16.2216 7.95021 2.62926 917.923 
430 2 15.6966 4.03424 0.0133339 920.261 
431 2 13.185 7.21558 -0.469454 906.358 
432 2 13.2319 4.0978 2.85408 927.713 
433 1 18.5065 4.78478 0.101265 930.011 
434 1 19.126 7.81669 3.08001 922.856 
435 1 21.674 4.69521 2.82496 945.691 
436 1 21.7297 7.66898 -0.00141919 928.425 
437 2 21.6807 7.77703 3.41593 944.519 
438 2 21.346 4.52484 -0.299348 940.035 
439 2 19.2728 7.37218 0.57959 915.973 
440 2 18.7001 4.99682 2.9229 944.985 
441 1 24.0527 3.94151 0.564233 944.56 
442 1 24.6425 7.49361 3.07325 932.676 
443 1 27.5261 5.09815 3.13943 937.821 
444 1 27.1168 7.57844 0.28392 951.311 
445 2 27.5622 7.69189 3.43564 939.963 
446 2 27.385 4.53007 -0.110759 955.241 
447 2 24.6248 7.44219 0.16774 948.753 
448 2 24.4934 4.89449 3.07643 928.289 
449 1 30.172 4.84052 -0.339503 968.486 
450 1 30.2209 7.63586 2.98361 940.083 
451 1 32.4553 4.69868 2.9184 945.136 
452 1 33.4634 7.26053 0.11985 951.418 
453 2 32.9171 7.25163 2.74088 966.509 
454 2 33.0615 4.53912 0.0353919 935.441 
455 2 30.0482 7.4111 -0.0194885 952.382 
456 2 30.0458 4.49316 3.22087 957.305 
457 1 36.017 4.89294 -0.487908 961.81 
458 1 36.4615 7.88525 2.54079 957.127 
459 1 39.2646 4.36242 2.16766 981.031 
460 1 39.0464 7.27757 -0.0567461 961.87 
461 2 38.9877 7.94814 2.3337 978.854 
462 2 38.9943 4.42643 -0.577197 967.97 
463 2 36.0483 7.55115 -0.236881 961.636 
464 2 36.6934 4.34651 2.68409 970.609 
465 1 42.0786 4.41031 0.133116 973.136 
466 1 41.6094 7.70014 3.38338 955.358 
467 1 44.3551 4.61434 2.83732 961.609 
468 1 44.2621 7.44227 -0.544557 961.381 
469 2 44.4958 7.2342 3.1405 949.607 
470 2 44.7342 4.67337 -0.177894 967.042 
471 2 41.6941 7.27444 -0.739697 967.632 
472 2 41.9313 4.86364 2.73145 938.407 
473 1 47.289 4.68981 0.16029 975.857 
474 1 47.7525 7.29475 2.77865 975.921 
475 1 50.1703 4.5796 2.6233 958.669 
476 1 50.5474 7.59338 -0.799265 1000.05 
477 2 50.1938 7.71473 3.06755 988.765 
478 2 50.3347 5.01716 -0.408856 988.942 
479 2 47.4242 7.53214 0.0359494 971.623 
480 2 47.4764 4.45938 3.00186 967.903 
481 1 52.8533 4.78691 -0.282767 973.492 
482 1 52.7646 7.43567 2.73671 970.384 
483 1 55.8278 4.39325 2.79626 979.111 
484 1 56.1532 7.64375 -0.232672 972.99 
485 2 55.9599 7.41589 2.89541 969.545 
486 2 55.9145 4.71329 0.129796 1000.19 
487 2 53.1051 7.39532 -0.0674726 978.415 
488 2 52.9371 4.60548 2.45083 1003.77 
489 1 58.4011 4.57334 -0.913725 986.824 
490 1 58.9264 7.53819 2.01771 980.912 
491 1 61.6196 4.46834 2.42275 988.747 
492 1 61.979 8.41396 -0.847339 974.285 
493 2 62.054 8.28564 2.56895 976.318 
494 2 61.8027 4.46904 -0.628739 999.503 
495 2 59.1413 7.04873 -0.744744 960.343 
496 2 59.2772 4.85996 2.95698 997.164 
497 1 64.6048 5.67977 -0.534078 985.276 
498 1 64.5399 8.02295 2.56374 944.684 
499 1 67.5461 4.66631 2.35151 995.624 
500 1 67.6571 8.67176 -0.143849 993.21 
501 2 67.652 8.86178 2.17314 991.465 
502 2 67.0867 5.00078 -0.268048 1000.73 
503 2 64.6017 8.28826 -0.658227 996.228 
504 2 64.2778 4.54424 2.21404 1005.4 
505 1 70.5906 5.2713 -0.263061 1008.08 
506 1 70.2124 8.38553 2.94749 987.591 
507 1 73.4294 5.38339 2.62224 990.228 
508 1 73.9133 8.13343 -0.4422 1022.88 
509 2 73.5091 8.18932 2.6178 1003.97 
510 2 73.8411 5.4267 -0.342921 970.564 
511 2 70.4134 8.2005 -0.334402 1017.07 
512 2 70.2266 5.21825 2.56158 999.472 
513 1 76.4098 4.96058 -0.0364895 998.4 
514 1 76.5255 7.65607 2.83852 999.531 
515 1 79.4162 4.73412 2.88135 1003.25 
516 1 79.6026 7.1027 -1.16266 998.552 
517 2 79.255 8.00936 2.96465 1016.5 
518 2 79.3763 5.11667 0.137667 1016.12 
519 2 76.5132 8.31054 -0.698869 987.373 
520 2 75.8835 5.03347 2.92987 1011.28 
521 1 82.8503 4.85236 -0.555611 1012.87 
522 1 81.8907 7.88214 2.27645 1013.43 
523 1 85.3494 4.83593 2.89646 1021.61 
524 1 85.854 8.55288 -0.16103 1000.43 
525 2 85.2369 8.22913 2.78338 1009.41 
526 2 85.3887 5.02187 -0.548911 1002.53 
527 2 81.9159 8.09184 -0.911011 1015.7 
528 2 82.6378 4.5627 2.73143 1043.01 
529 1 88.3719 4.87824 -0.608418 1018.08 
530 1 88.1561 8.21995 2.86629 1009.61 
531 1 90.8301 4.59819 2.75156 1026.99 
532 1 90.939 8.24963 -0.164116 1020.64 
533 2 91.1929 7.91136 2.20657 1005.67 
534 2 90.9734 4.17735 -1.17687 1016.43 
535 2 88.6078 8.52564 -0.520945 1007.97 
536 2 88.1092 5.30302 2.28237 1027.48 
537 1 94.0043 5.0928 -0.153482 1032.62 
538 1 93.9957 8.3642 2.46083 1015.59 
539 1 97.092 5.15325 2.64734 1024.07 
540 1 96.9034 7.70703 -0.385544 1021.9 
541 2 96.9699 7.89334 2.77003 1042.17 
542 2 96.5504 4.53019 -0.170088 1042.62 
543 2 94.4931 7.90082 -0.341551 1017.16 
544 2 93.3661 5.28623 2.27008 999.585 
545 1 99.5185 4.72235 -0.479413 1005.96 
546 1 99.7149 7.80307 2.78083 1025.84 
547 1 102.554 4.81827 3.14298 1015.52 
548 1 102.672 7.91222 -0.464537 1008.39 
549 2 102.312 7.68177 2.31516 1021 
550 2 102.156 5.07632 -0.885543 1012.05 
551 2 99.67 7.75594 -0.389277 1025.27 
552 2 99.5264 4.47015 2.75991 1035.98 
553 1 105.643 4.793 -0.284226 1026.46 
554 1 105.813 8.04856 2.23941 1038.85 
555 1 108.689 4.78552 1.87436 1041.43 
556 1 108.903 7.84647 -1.12641 1042.14 
557 2 108.651 8.22633 1.72866 1050.6 
558 2 108.548 4.64631 -0.798754 1055.11 
559 2 105.417 7.74702 -0.373724 1021.15 
560 2 105.672 4.95456 2.39325 1035.6 
561 1 111.167 4.65661 -1.29601 1056.55 
562 1 110.989 7.61914 2.42338 1067.5 
563 1 114.621 5.38328 2.18966 1046.19 
564 1 113.984 8.10108 -0.550628 1059.95 
565 2 113.645 8.11007 2.428 1042.99 
566 2 114.133 5.06848 -0.579958 1057.99 
567 2 111.501 8.09272 -1.33982 1052.47 
568 2 111.009 5.13436 1.83644 1046.61 
569 1 117.49 4.8628 -0.561356 1056.77 
570 1 116.794 8.3073 2.91256 1035.11 
571 1 120.112 3.98903 2.21851 1045.87 
572 1 120.496 8.19399 -0.217507 1070.8 
573 2 120.607 8.34336 2.13065 1057.98 
574 2 120.255 4.93356 -0.952424 1062.99 
575 2 117.005 7.71175 0.168286 1035.97 
576 2 117.296 4.74215 2.29186 1053.26 
577 1 122.874 4.78775 -0.844458 1054.31 
578 1 123.049 8.07399 2.50613 1079.45 
579 1 125.46 4.81708 1.71522 1067.19 
580 1 125.957 8.23521 -0.909881 1058.2 
581 2 125.718 8.48477 2.53076 1072.13 
582 2 125.552 4.91192 -0.894167 1073.3 
583 2 123.288 7.81613 -0.959702 1072.68 
584 2 122.901 4.69232 1.90029 1071.6 
585 1 128.982 4.84366 -0.77378 1088.84 
586 1 128.495 8.38774 2.61354 1077.72 
587 1 131.414 6.01696 2.31959 1072.94 
588 1 131.649 8.30707 -0.8561 1073.6 
589 2 131.782 8.22082 2.99536 1082.54 
590 2 131.815 5.63966 -0.746886 1075.29 
591 2 128.972 8.41746 -0.375317 1084.75 
592 2 128.63 5.26163 2.34752 1089.53 
593 1 134.918 4.83641 -0.432493 1087.44 
594 1 135.165 7.51906 2.28554 1085.6 
595 1 138.377 5.40049 2.62957 1118.99 
596 1 137.75 8.04492 -0.997961 1091.99 
597 2 137.594 7.72194 2.2797 1069.62 
598 2 138.057 5.28348 -0.477463 1093.45 
599 2 134.828 7.89119 -0.468333 1079.04 
600 2 134.759 5.02004 2.5423 1083.88 
601 1 140.686 4.90271 -1.01667 1102.37 
602 1 140.655 8.0017 2.37853 1094.75 
603 1 143.878 4.95942 1.79733 1091.89 
604 1 143.873 8.41632 -1.01332 1113.51 
605 2 143.8 7.461 2.02504 1105.42 
606 2 144.29 4.74676 -0.863039 1099.2 
607 2 140.928 7.95 -1.11526 1092.89 
608 2 140.872 4.93028 2.25324 1067.29 
609 1 146.715 5.35029 -0.806303 1086.06 
610 1 146.946 7.92495 2.34619 1069.42 
611 1 149.516 4.53676 1.91157 1074 
612 1 149.293 8.27755 -1.13676 1061.41 
613 2 149.575 8.31125 2.23107 1064.2 
614 2 149.459 5.05007 -0.828829 1050.84 
615 2 146.905 8.17296 -0.69254 1092.04 
616 2 147.071 4.93236 2.15148 1060.06 
617 1 152.005 5.77952 -1.11135 1078.89 
618 1 152.151 7.96925 2.24889 1073.82 
619 1 154.607 4.1872 1.85686 1072.47 
620 1 155.521 8.06191 -0.998318 1057.88 
621 2 155.122 8.29609 2.0347 1070.8 
622 2 154.677 4.96298 -0.629042 1063.31 
623 2 152.824 8.5178 -1.0095 1087.54 
624 2 152.11 4.68282 2.02044 1090.49 
625 1 157.761 4.97681 -0.458957 1065.45 
626 1 158.428 8.5835 2.25026 1067 
627 1 160.845 4.29163 1.9158 1067.49 
628 1 160.667 7.82287 -1.14641 1081.59 
629 2 160.964 8.17915 1.68537 1046.51 
630 2 161.102 3.85468 -1.08137 1062.7 
631 2 158.06 7.68007 -0.399024 1068.53 
632 2 158.185 4.98121 2.21132 1084.13 
633 1 163.531 4.55847 -1.6781 1063.31 
634 1 163.389 7.67098 2.00654 1055.51 
635 1 166.93 4.39785 2.03929 1047.87 
636 1 166.697 7.33915 -0.320551 1047.76 
637 2 167.097 7.4318 2.24169 1043.89 
638 2 166.73 4.5551 -0.916424 1045.28 
639 2 164.166 7.58847 -1.43255 1061.16 
640 2 164.171 4.83915 1.06608 1044.1 
641 1 169.716 4.44393 -0.991734 1034.57 
642 1 169.666 7.59806 1.78697 1044.63 
643 1 172.207 4.09623 2.3091 1046.53 
644 1 172.321 7.04323 -1.51442 1053.55 
645 2 172.398 7.53247 2.02117 1040.63 
646 2 172.654 4.52974 -0.655418 1053.92 
647 2 169.776 7.37835 -1.13564 1036.24 
648 2 169.517 4.51333 2.16878 1023.3 
649 1 175.562 4.96749 -0.73643 1073.05 
650 1 175.067 7.98324 1.92544 1065.88 
651 1 178.385 4.82866 2.06405 1038.22 
652 1 178.545 7.76513 -1.07016 1059.21 
653 2 178.913 7.62526 1.65163 1072.13 
654 2 178.9 4.64716 -1.237 1038.87 
655 2 175.809 7.67109 -0.981835 1053.33 
656 2 175.132 4.5282 2.40543 1054.03 
657 1 181.189 4.11973 -0.42229 1019.46 
658 1 181.665 8.30445 1.79355 1066.61 
659 1 184.466 4.49847 2.34492 1016.62 
660 1 184.786 7.80978 -0.573948 1035.38 
661 2 184.395 7.63379 2.51807 1040.19 
662 2 184.743 4.92338 -0.329459 1041.33 
663 2 181.795 7.74653 -0.853802 1033.6 
664 2 181.714 4.07289 2.51135 1038.08 
665 1 187.516 4.22008 -0.448246 1033.88 
666 1 186.911 7.1822 1.99022 1028.95 
667 1 189.34 3.75116 2.45213 1011.09 
668 1 190.184 7.11939 -0.729935 1016.84 
669 2 189.629 7.13239 2.17721 1039.82 
670 2 189.869 4.40435 -0.626262 1040.38 
671 2 187.184 7.55512 -0.909893 1051.16 
672 2 186.964 4.25821 2.84593 1022.64 
673 1 192.779 4.60789 -1.084 1021.06 
674 1 192.738 7.42382 2.76846 1051.26 
675 1 195.58 4.66517 2.59916 1007.6 
676 1 195.509 7.64224 -0.688997 1008.52 
677 2 196.053 7.41518 2.32136 1003.32 
678 2 195.667 4.22201 -0.209911 1027.83 
679 2 192.688 7.27635 -0.760904 1021.95 
680 2 193.004 4.31222 1.9667 1023.91 
681 1 198.47 4.45064 -0.669126 990.826 
682 1 198.814 7.31267 2.21207 1001.76 
683 1 201.442 4.82919 2.1042 997.699 
684 1 201.922 7.49329 -0.754933 1017.52 
685 2 201.634 7.3606 1.9764 1003.04 
686 2 201.156 4.5083 -1.36145 985.569 
687 2 198.655 7.20857 -0.558962 996.573 
688 2 198.575 4.23398 2.53343 1004.13 
689 1 203.939 4.52683 -0.901512 988.075 
690 1 204.729 7.04406 2.16312 1009.8 
691 1 207.2 4.05499 2.34024 1006.76 
692 1 206.954 7.08958 -1.01491 1005.26 
693 2 207.731 7.30827 2.95323 1000.68 
694 2 208.166 4.48234 -0.58209 1005.44 
695 2 204.516 7.52593 -0.886823 1017.23 
696 2 204.401 4.39937 2.10282 1010.39 
697 1 210.85 4.5504 -0.314052 975.738 
698 1 210.684 7.64813 2.25792 1008.03 
699 1 213.703 4.31183 2.42008 1010.69 
700 1 213.415 7.32829 -0.676499 1001.29 
701 2 213.491 7.2182 2.63979 1014 
702 2 213.32 4.39725 -0.698922 1018.91 
703 2 210.298 7.83091 -0.52822 1005.07 
704 2 210.938 4.80292 2.14775 1004.26 
705 1 216.686 4.61149 -1.04194 990.476 
706 1 216.164 7.40206 2.34194 997.509 
707 1 219.56 3.92622 1.99309 975.917 
708 1 219.215 7.59944 -0.444494 996.724 
709 2 219.455 7.32092 2.46175 969.417 
710 2 218.976 4.36053 -0.65167 1005.24 
711 2 216.51 7.11748 -0.639692 1008.89 
712 2 216.51 4.68308 3.22668 1005.67 
713 1 222.458 4.46466 -0.560183 998.326 
714 1 222.054 7.52788 2.84454 1010.22 
715 1 224.774 4.00262 2.75564 987.304 
716 1 224.88 7.20509 -0.613963 983.263 
717 2 225.006 7.17324 2.56696 1001.14 
718 2 224.996 4.34819 -0.970566 989.167 
719 2 222.171 7.78665 -0.320407 1005.52 
720 2 222.289 3.64327 2.32082 958.64 
721 1 227.668 4.22612 -0.943647 961.21 
722 1 227.799 7.73246 2.54812 973.539 
723 1 230.204 4.14873 2.4304 1001.81 
724 1 230.454 6.96138 -0.450708 994.193 
725 2 230.783 7.36137 2.31782 1011.82 
726 2 230.194 3.9725 -1.11405 986.6 
727 2 227.761 6.99983 -0.254277 992.144 
728 2 227.609 3.99523 2.91992 986.25 
729 1 233.204 3.98535 -0.754662 975.362 
730 1 233.36 7.2649 2.74391 993.396 
731 1 236.104 4.03741 2.50459 983.891 