ITEM: TIMESTEP
4500000
ITEM: NUMBER OF ATOMS
8400
ITEM: BOX BOUNDS pp pp pp
-5.9099547646241319e+00 2.8359995476463484e+02
-2.1446273254920634e+00 4.0174627325491812e+01
-1.7757301867509554e+00 1.6325730186751606e+01
ITEM: ATOMS id type x y z f_TolTpA 
1 1 -4.45266 -0.723421 -0.150804 921.481 
2 1 -4.32515 1.83843 2.60543 922.554 
3 1 -1.01195 -1.25766 2.7631 924.13 
4 1 -1.25289 1.9296 -0.266122 913.145 
5 2 -1.09078 1.72729 2.62166 911.222 
6 2 -1.11927 -0.987569 -0.199809 902.831 
7 2 -4.3434 1.76574 -0.179561 927.817 
8 2 -4.22878 -1.20021 2.66532 915.363 
9 1 1.64097 -1.84913 -0.268227 927.214 
10 1 1.58478 2.19967 2.71793 913.523 
11 1 4.70808 -1.03867 2.40701 911.458 
12 1 4.61051 2.26258 -0.216626 918.796 
13 2 4.54487 1.8616 2.67905 909.699 
14 2 4.28039 -1.212 -0.41575 938.481 
15 2 1.47159 2.57201 0.0333091 914.697 
16 2 2.14448 -1.41976 2.29358 943.639 
17 1 7.18825 -1.06415 -0.450363 928.817 
18 1 7.35411 1.83082 2.7115 938.282 
19 1 10.3243 -1.03167 2.97858 935.195 
20 1 10.0515 1.83883 -0.63372 932.19 
21 2 10.0587 1.55899 2.69705 930.517 
22 2 10.1453 -1.86242 -0.893819 937.775 
23 2 7.15476 1.48853 -0.178806 923.28 
24 2 7.31483 -1.03838 2.40432 936.786 
25 1 12.9298 -1.3174 -0.166957 936.316 
26 1 13.2667 2.32147 3.23435 917.627 
27 1 15.7703 -0.64211 3.09323 932.88 
28 1 16.0526 1.71771 -0.198886 941.075 
29 2 15.7555 1.70486 2.47873 913.246 
30 2 15.7158 -1.49916 -0.661155 945.443 
31 2 12.7406 1.2842 -0.241698 919.262 
32 2 13.2879 -1.28595 3.13145 943.949 
33 1 18.856 -1.49871 -0.494749 952.406 
34 1 18.5741 2.04033 2.70591 925.906 
35 1 21.1855 -1.42145 2.77744 941.254 
36 1 21.2264 1.26271 -0.256142 940.059 
37 2 21.8191 1.70812 2.72901 942.759 
38 2 21.6914 -1.56809 0.0135679 948.294 
39 2 18.714 1.51114 -0.175282 948.675 
40 2 18.2762 -1.54804 3.27482 937.251 
41 1 24.5734 -1.66719 -0.210755 958.223 
42 1 24.271 1.43267 2.9684 969.111 
43 1 27.3686 -1.64621 2.81525 955.488 
44 1 27.3301 1.95641 -0.118456 942.913 
45 2 27.8935 2.1596 3.09654 963.127 
46 2 27.483 -1.84931 0.0833789 910.772 
47 2 24.9272 1.93633 -0.778828 946.882 
48 2 24.5367 -1.65552 2.45812 961.425 
49 1 30.3323 -1.41089 0.0211082 942.698 
50 1 30.4624 1.77251 2.26276 973.144 
51 1 33.3965 -1.4618 2.66701 951.319 
52 1 32.9991 1.13061 -0.707612 945.906 
53 2 33.0694 1.40613 2.13159 961.878 
54 2 33.0434 -1.61754 -0.409137 934.988 
55 2 30.1815 1.30499 -0.489026 962.082 
56 2 30.2528 -1.45066 2.5304 939.156 
57 1 36.0667 -1.9854 -0.368801 937.702 
58 1 35.774 1.79049 2.20534 968.052 
59 1 38.5622 -1.33612 2.78499 965.067 
60 1 38.7886 1.00849 -0.433259 975.2 
61 2 39.0194 1.20775 2.60879 972.385 
62 2 38.9132 -1.88143 -0.480611 976.631 
63 2 35.8405 1.64312 -0.3754 975.702 
64 2 36.0348 -1.73359 2.39338 941.35 
65 1 41.7908 39.9436 0.0331146 955.678 
66 1 41.8607 1.58891 2.47854 968.516 
67 1 44.4457 -1.93634 2.40857 971.249 
68 1 45.0038 1.83695 -0.262646 1001.49 
69 2 44.4733 0.920446 2.65745 992.255 
70 2 44.5545 -1.71004 -0.685589 974.521 
71 2 41.748 1.19861 -0.609396 968.437 
72 2 41.1733 -2.01029 2.60959 964.666 
73 1 47.4955 -2.04082 -0.247242 967.338 
74 1 47.6175 0.985583 2.97438 984.792 
75 1 50.3811 -1.42192 2.8359 983.438 
76 1 50.0668 1.50013 -0.20106 985.284 
77 2 50.4704 1.45334 2.65033 994.134 
78 2 50.327 -2.04237 -0.124581 976.989 
79 2 47.6468 2.26016 -0.132874 985.768 
80 2 47.6233 -1.35182 2.44316 983.136 
81 1 53.4896 39.9431 -0.489974 985.285 
82 1 53.7514 0.687538 3.26566 999.48 
83 1 55.9689 -2.11719 2.72295 974.718 
84 1 55.8368 1.32898 -0.205048 979.413 
85 2 55.9279 1.40348 2.44492 993.102 
86 2 55.9645 40.0762 -0.80626 997.524 
87 2 53.345 1.27342 -0.451158 974.209 
88 2 53.2861 -1.92394 2.67497 962.281 
89 1 58.5424 -1.91922 -0.586958 1013.81 
90 1 58.5311 1.23215 2.80475 997.42 
91 1 61.7764 -1.45431 2.2772 969.867 
92 1 61.1711 1.18638 -0.541051 985.659 
93 2 61.6797 1.5951 2.76059 970.966 
94 2 61.3025 -1.27185 -0.15396 984.884 
95 2 58.8234 1.52579 -1.30294 994.097 
96 2 58.8777 -1.41133 2.59382 969.97 
97 1 64.8165 -1.18597 -0.293429 986.345 
98 1 64.6446 1.37774 2.99378 1001.65 
99 1 67.4261 -1.98284 2.41209 1000.79 
100 1 67.993 0.911819 -0.552387 1018.35 
101 2 67.2958 1.4285 2.67137 1016.66 
102 2 67.4358 -1.86245 -0.39541 1022.54 
103 2 64.757 1.29292 -0.117872 967.937 
104 2 64.8364 -1.79393 2.70495 980.348 
105 1 70.6994 -1.54085 -0.592788 1011.07 
106 1 69.9124 1.72073 2.53131 1002.71 
107 1 73.5173 -1.78431 2.19274 1005.08 
108 1 73.877 1.11459 -0.284705 1024.75 
109 2 73.9083 0.893846 2.38399 1000.89 
110 2 73.5054 -2.01277 -0.529083 1008.97 
111 2 70.8246 1.44118 -0.626049 988.038 
112 2 70.2866 -1.01575 2.52097 1010.7 
113 1 76.6136 39.9772 -0.807984 1009.19 
114 1 76.5684 1.32216 1.97267 998.06 
115 1 79.126 -1.48037 2.09916 1001.91 
116 1 80.1309 0.796314 -0.0566579 991.855 
117 2 79.079 0.952905 2.55685 1010.36 
118 2 79.3582 40.048 -0.815889 998.967 
119 2 76.284 0.994125 -0.678215 1014.6 
120 2 76.6701 -2.11062 2.02441 1014.76 
121 1 82.0095 38.9529 -0.602057 1008.04 
122 1 82.184 0.979358 3.02364 1037.26 
123 1 85.1201 -2.08943 2.3617 991.133 
124 1 84.8709 0.555008 -0.0213419 1024.35 
125 2 85.1553 0.613011 2.65126 1031.86 
126 2 84.6194 39.9057 -0.249058 1025.21 
127 2 82.7907 1.54852 -1.03135 1011.95 
128 2 81.8202 -1.76978 2.3515 1012.53 
129 1 87.4759 -2.06061 -0.752924 1019.55 
130 1 88.1691 1.23456 2.54746 1040.84 
131 1 90.649 -2.03118 2.229 1033.52 
132 1 90.5158 1.36547 -0.417028 1026.53 
133 2 90.8355 1.07571 2.22647 1013.06 
134 2 90.3209 -1.82794 -0.720709 1040.12 
135 2 87.2637 1.40068 -0.378563 1022.8 
136 2 87.9794 39.9445 2.86644 1035.09 
137 1 93.624 -1.67811 -1.02159 1024.66 
138 1 94.0335 1.9728 2.11065 1025.28 
139 1 96.5596 -1.75782 1.95675 1017.64 
140 1 96.932 1.35483 -0.841972 1018.09 
141 2 96.8191 1.3006 1.91608 1031.23 
142 2 97.2138 -1.87246 -0.892371 1010.12 
143 2 94.0842 1.45802 -0.975904 1037 
144 2 93.8739 -1.92256 2.35913 1029.1 
145 1 99.7341 -1.46054 -0.479294 1047.69 
146 1 99.7253 1.47665 2.64172 1052.44 
147 1 102.773 -1.37718 2.32804 1017.9 
148 1 102.961 1.3098 -0.533206 1032.62 
149 2 102.584 1.43529 2.16644 1062.57 
150 2 102.368 -1.3706 -0.801715 1031.97 
151 2 99.6581 1.52802 -0.477817 1023.6 
152 2 99.776 -1.71133 2.18762 1015.25 
153 1 105.778 -1.55926 -0.0633983 1039.34 
154 1 105.49 1.40887 2.65609 1050.21 
155 1 108.609 -1.63145 2.71627 1047.62 
156 1 108.741 1.53374 -0.478666 1023.82 
157 2 108.277 0.905076 2.28723 1052.21 
158 2 108.726 -1.93393 -0.713645 1035.39 
159 2 105.448 1.41257 -0.202276 1041.37 
160 2 105.467 -1.66532 2.55477 1041.15 
161 1 111.021 -1.75356 -0.100384 1057.03 
162 1 111.896 1.21197 2.16823 1057.3 
163 1 114.447 -1.83193 2.74979 1052 
164 1 114.413 0.447766 -0.977554 1050.46 
165 2 114.365 1.65501 2.44856 1047.63 
166 2 114.658 -1.90287 -0.708987 1047.26 
167 2 111.419 0.867502 -0.51871 1045.6 
168 2 111.899 -1.67016 2.52066 1025.88 
169 1 117.542 39.9154 -0.226231 1041.31 
170 1 116.966 1.01933 1.90869 1059.87 
171 1 119.976 -2.13689 2.89082 1065.91 
172 1 119.63 0.92207 -0.620802 1051.12 
173 2 119.915 0.758306 2.10732 1048.73 
174 2 120.165 -2.00759 -0.385711 1079.77 
175 2 117.312 1.62295 -0.566129 1077.45 
176 2 117.398 -1.60069 2.49772 1056.41 
177 1 122.857 -1.75301 -0.669744 1082.16 
178 1 122.448 1.19378 2.07127 1065.97 
179 1 126.016 40.0633 2.24319 1083.89 
180 1 125.92 1.62159 -0.10985 1072.79 
181 2 126.411 2.02272 2.83085 1042.51 
182 2 126.155 -1.48281 -0.407089 1083.67 
183 2 122.966 0.898542 -0.593243 1064.65 
184 2 122.828 39.7819 2.59756 1097.6 
185 1 128.93 -1.58497 -0.992976 1063.17 
186 1 128.67 1.1989 2.33827 1057.49 
187 1 132.016 -1.66233 2.1785 1082.01 
188 1 131.86 1.46792 -0.622917 1080.42 
189 2 131.515 0.941507 2.27797 1072.26 
190 2 131.601 -1.74822 -0.777911 1099.3 
191 2 128.729 1.65481 -0.311277 1078.09 
192 2 129.294 -1.50207 2.35983 1065.04 
193 1 134.235 -1.49592 -0.885584 1082.47 
194 1 134.697 0.975537 2.75853 1085.96 
195 1 137.934 -1.28988 2.33308 1096.17 
196 1 137.419 0.933164 -0.873154 1081.4 
197 2 137.412 1.42467 2.51244 1092.15 
198 2 137.273 -1.95039 -0.927606 1063.28 
199 2 134.411 1.00236 -0.536736 1080.28 
200 2 134.47 -1.69018 2.64661 1077.5 
201 1 140.701 -1.6235 -0.764111 1092.93 
202 1 140.544 1.36912 2.57871 1086.78 
203 1 143.609 -1.60174 2.67383 1086.45 
204 1 143.169 0.86183 -1.00435 1089.94 
205 2 143.834 0.891864 2.19148 1107.51 
206 2 143.486 -1.6336 -0.689784 1080.54 
207 2 140.219 1.26767 -0.948014 1096.29 
208 2 140.73 -1.06666 2.40584 1077.92 
209 1 146.386 -1.16726 0.13043 1081.43 
210 1 146.607 1.1573 2.3942 1073.95 
211 1 150.154 -1.46739 2.8416 1063.69 
212 1 149.757 1.60613 -0.267313 1081.67 
213 2 150.068 1.67733 2.53411 1070.16 
214 2 149.359 -1.41301 0.165899 1064.14 
215 2 146.874 1.45031 -0.273683 1057.77 
216 2 146.426 -1.48449 2.86957 1072.82 
217 1 152.796 -1.22445 -0.567514 1097.14 
218 1 152.631 1.85903 2.25851 1061.81 
219 1 155.302 -1.75884 2.22293 1079.4 
220 1 155.573 1.50039 -0.580273 1086.92 
221 2 155.606 1.58678 2.44671 1078.74 
222 2 155.605 -1.78119 -0.6256 1081 
223 2 152.677 1.23648 -0.698401 1084.47 
224 2 152.629 -1.66206 2.15554 1069.38 
225 1 158.62 -1.58044 0.0466091 1090.72 
226 1 158.285 0.930181 2.6652 1072.24 
227 1 161.569 -1.68244 2.48134 1058.38 
228 1 161.521 1.43701 -1.05331 1070.74 
229 2 161.777 1.3741 1.84857 1066.54 
230 2 161.41 -1.92261 0.00343583 1063.66 
231 2 158.672 0.665859 -0.661239 1049.48 
232 2 158.389 -1.83803 2.49504 1069.42 
233 1 164.364 -1.9781 -0.438297 1049.52 
234 1 164.292 1.75895 1.68055 1067.43 
235 1 167.294 -1.38967 2.13775 1038.69 
236 1 167.112 1.56207 -0.84506 1049.9 
237 2 167.027 1.65923 2.24378 1025.96 
238 2 167.117 -1.60386 -0.979832 1038.65 
239 2 164.53 1.43623 -0.832623 1050.5 
240 2 164.687 40.1517 2.20661 1051.96 
241 1 169.924 -0.790853 -1.26663 1068.46 
242 1 169.731 2.06321 2.87819 1031.65 
243 1 173.063 -0.795358 1.99445 1044.16 
244 1 172.597 2.31162 -0.866314 1056.39 
245 2 172.99 2.60378 1.9995 1078.82 
246 2 172.756 -0.953343 -0.494267 1054.08 
247 2 169.924 2.02735 -1.27387 1054.38 
248 2 170.145 -0.648092 2.28714 1040.94 
249 1 175.242 -0.489302 -0.90457 1058.55 
250 1 175.537 1.67133 2.71216 1043.47 
251 1 178.224 -1.28442 2.06788 1037.29 
252 1 178.393 2.04202 -1.19148 1038.58 
253 2 179.461 1.67781 1.88406 1035.47 
254 2 178.402 -0.674698 -1.14422 1020.19 
255 2 175.831 1.99113 -1.57896 1043.53 
256 2 175.401 -0.999779 1.78788 1026.56 
257 1 181.355 -1.5609 -0.979279 1010.67 
258 1 181.887 1.26642 1.70506 1039.62 
259 1 184.525 -1.24275 1.85056 1031.77 
260 1 184.305 1.36743 -1.48483 1022.95 
261 2 184.513 1.57757 2.30552 1035.95 
262 2 183.844 -1.42072 -0.726621 1053.56 
263 2 181.695 1.55352 -1.02682 1025.37 
264 2 181.389 -1.44848 2.40608 1022 
265 1 186.844 -1.58213 -1.31629 1026.52 
266 1 187.171 1.91693 2.68717 1012.12 
267 1 189.524 -1.15778 2.95463 1033.74 
268 1 190.373 1.45054 -0.22084 1033.19 
269 2 190.095 1.66986 2.52935 1003.68 
270 2 189.742 -1.20317 -0.775029 1033.24 
271 2 186.963 1.3756 -1.59188 1008.73 
272 2 186.926 -1.46169 2.45901 1040.6 
273 1 193.205 -0.946191 -0.574635 1029.58 
274 1 193.312 1.7654 2.29062 1018.23 
275 1 196.105 -0.935189 2.21278 1003.86 
276 1 196.297 1.87838 -0.605334 1015.68 
277 2 196.053 1.8095 2.35526 1004.49 
278 2 196.421 -0.847399 -0.75449 1025.48 
279 2 192.949 1.51843 -0.623633 1020.93 
280 2 193.151 -1.22688 2.47769 1023.52 
281 1 198.998 -1.25291 -1.26303 1034.27 
282 1 198.819 1.54724 1.69057 1026.91 
283 1 202.056 -1.38345 2.33524 1013 
284 1 202.387 1.47211 -0.448961 1026.85 
285 2 201.942 1.86398 2.21881 1029.9 
286 2 201.625 -0.924065 -0.540759 1038.02 
287 2 198.766 1.79653 -1.33694 1005.8 
288 2 199.523 -0.984943 2.61503 1005.39 
289 1 205.516 -1.17954 -0.963176 1018.58 
290 1 204.564 1.70086 2.29704 1029.46 
291 1 207.579 -1.66013 2.0519 992.922 
292 1 207.482 2.26987 -0.615765 991.048 
293 2 208.145 1.36787 2.29134 1000.12 
294 2 207.85 -1.75075 -0.294495 990.1 
295 2 204.81 1.67955 -0.791153 1012.11 
296 2 205.123 -1.16873 2.07375 1009.3 
297 1 210.611 -1.39017 -0.633094 982.914 
298 1 210.395 1.89988 2.21445 985.979 
299 1 213.604 -0.910807 2.436 997.827 
300 1 213.211 2.28383 -0.339983 988.996 
301 2 213.413 2.29037 2.35626 989.285 
302 2 213.354 -0.532198 -0.425331 979.359 
303 2 210.342 1.74772 -0.505268 992.544 
304 2 210.795 -1.42051 2.04558 980.499 
305 1 215.922 -1.09613 -0.477166 982.222 
306 1 216.17 2.34252 2.16218 992.956 
307 1 218.853 -0.75115 2.03403 959.638 
308 1 219.046 1.72581 -0.922263 995.059 
309 2 218.963 2.0071 1.85611 986.906 
310 2 218.665 -1.04367 -0.684541 996.004 
311 2 216.147 1.80501 -0.64566 976.312 
312 2 216.179 -1.05337 2.45192 989.235 
313 1 221.678 -0.977367 -0.892102 974.073 
314 1 221.73 1.99477 2.29854 977.096 
315 1 224.961 -0.918834 2.30693 992.103 
316 1 225.041 1.88337 -0.0969433 998.49 
317 2 224.922 1.78818 2.61344 975.204 
318 2 224.53 -0.909475 -0.747161 972.542 
319 2 221.751 2.26492 -1.06477 971.908 
320 2 222.036 -0.789402 2.0655 984.31 
321 1 227.733 -1.00197 -0.422855 972.578 
322 1 228.025 1.73335 2.47908 988.942 
323 1 231.444 -1.38263 2.26977 961.524 
324 1 231.448 1.48393 -0.476232 989.608 
325 2 231.143 1.88894 2.36091 971.418 
326 2 231.652 -1.24116 -0.415067 988.226 
327 2 228.034 1.91598 -0.601719 992.821 
328 2 227.63 -1.23066 2.14905 974.991 
329 1 234.217 -1.49383 -1.25925 970.373 
330 1 233.828 2.1539 2.63354 968.075 
331 1 236.708 -0.880808 2.23438 977.694 
332 1 236.692 1.69659 0.113941 980.486 
333 2 236.497 3.01751 2.44137 997.465 
334 2 236.669 -0.743452 -0.891693 993.289 
335 2 233.976 2.0929 -0.0742659 966.968 
336 2 233.903 -0.971143 2.48199 953.837 
337 1 239.231 -1.23141 -0.920827 964.36 
338 1 239.41 2.54349 2.40961 982.776 
339 1 242.51 -0.942092 1.70946 968.073 
340 1 241.56 2.01621 -0.717443 977.552 
341 2 242.713 2.19627 1.94996 943.889 
342 2 242.522 -0.912724 -0.862469 976.735 
343 2 239.233 2.53543 -0.327213 965.456 
344 2 239.448 -0.88258 2.16573 983.621 
345 1 245.203 -0.499626 -0.73434 979.72 
346 1 245.612 1.81382 1.96479 948.62 
347 1 248.347 -1.1575 2.04657 960.49 
348 1 248.821 2.10693 -0.776052 963.539 
349 2 248.66 2.06362 2.11946 962.807 
350 2 248.48 -0.932239 -0.392728 962.423 
351 2 245.471 2.01454 -0.849558 933.935 
352 2 245.663 -0.916607 1.84833 952.827 
353 1 251.114 -1.1793 -0.369064 956.746 
354 1 251.125 1.85098 2.69127 951.47 
355 1 254.131 -1.00952 2.497 961.064 
356 1 253.807 1.7727 -0.471795 960.151 
357 2 253.759 1.78712 2.86862 957.273 
358 2 253.922 -1.15163 -0.808732 970.028 
359 2 251.281 1.92906 -1.092 972.142 
360 2 251.477 -1.2555 2.56024 958.715 
361 1 256.75 -1.37161 -0.488956 927.583 
362 1 256.26 2.2097 2.56987 924.237 
363 1 259.624 -1.02167 2.41044 965.09 
364 1 259.441 2.07168 -0.506046 947.668 
365 2 259.799 2.10179 2.41452 941.76 
366 2 259.674 -0.782473 -0.539246 952.52 
367 2 256.805 1.5355 -0.145333 949.976 
368 2 256.543 -1.38768 2.63543 964.338 
369 1 262.321 -1.19824 -0.779364 934.935 
370 1 262.501 1.66186 2.36726 942.946 
371 1 265.001 -1.69101 2.36767 938.625 
372 1 265.338 2.62288 -0.655854 911.761 
373 2 265.208 2.46509 2.62361 943.312 
374 2 264.93 -0.991526 -0.503426 940.553 
375 2 262.301 2.46294 -0.676694 950.201 
376 2 262.242 -1.29789 2.51927 959.6 
377 1 268.157 -1.18068 0.023295 940.936 
378 1 268.182 1.84234 2.22928 923.298 
379 1 271.381 -1.11462 2.49063 945.918 
380 1 270.791 1.726 -0.394472 926.703 
381 2 270.972 1.70828 2.25997 953.498 
382 2 271.057 -0.980997 -0.41709 950.993 
383 2 268.05 1.64841 -0.418403 931.671 
384 2 267.748 -1.00677 2.4827 941.184 
385 1 273.867 -1.72609 0.152003 947.757 
386 1 273.938 2.37502 2.87957 934.399 
387 1 276.698 -0.642853 2.71346 924.855 
388 1 276.573 2.15056 -0.277964 920.384 
389 2 276.645 1.91582 2.4573 929.716 
390 2 276.577 -0.48608 -0.270268 926.19 
391 2 273.607 2.33976 -0.209227 939.189 
392 2 273.941 -0.97186 2.85923 912.945 
393 1 279.522 -0.983067 -0.922909 916.176 
394 1 279.358 1.66712 2.519 935.165 
395 1 282.183 -0.822822 3.2597 912.757 
396 1 282.258 2.2443 -0.111595 913.957 
397 2 282.294 1.63154 2.80923 932.193 
398 2 282.09 -0.835552 -0.455742 908.438 
399 2 279.184 2.08189 -0.143824 931.338 
400 2 279.703 -0.729743 3.53359 926.367 
401 1 -4.3243 4.63148 -0.209172 926.16 
402 1 -3.88255 7.70368 2.33416 920.084 
403 1 -1.29826 4.54549 2.26689 897.647 
404 1 -1.56103 7.68654 -0.440435 922.688 
405 2 -1.28836 7.95412 2.15436 910.924 
406 2 -1.70847 4.76781 -0.309925 900.324 
407 2 -4.30517 7.24516 -0.330178 943.347 
408 2 -3.88785 4.90148 2.77253 907.086 
409 1 1.60632 5.11099 -0.0164416 935.561 
410 1 1.4554 7.67019 2.69691 901.61 
411 1 4.19416 5.20134 2.78345 911.719 
412 1 4.29126 8.1476 -0.463546 921.387 
413 2 4.13914 8.07535 2.33242 917.173 
414 2 4.41199 4.7798 -0.0745594 917.734 
415 2 1.30896 7.98677 -0.546478 919.021 
416 2 1.52668 4.86139 2.79331 920.658 
417 1 7.22457 5.01696 -0.245042 938.248 
418 1 7.20459 7.67203 2.70472 929.862 
419 1 10.3683 4.86399 2.65573 939.551 
420 1 10.6722 7.43176 -0.163024 937.194 
421 2 9.92513 7.32382 2.38386 929.434 
422 2 10.4332 4.41277 0.00276325 943.514 
423 2 6.82893 7.8651 -0.454093 940.331 
424 2 7.54738 4.74212 2.7562 928.555 
425 1 13.0665 4.34682 -0.552721 924.657 
426 1 13.2953 7.79063 2.5207 942.523 
427 1 15.9078 4.64738 2.98759 959.079 
428 1 15.7619 7.49815 -0.354349 937.883 
429 2 16.0317 7.75559 2.3509 937.039 
430 2 15.5444 4.95685 -0.81842 935.003 
431 2 13.0292 7.27098 -0.278523 917.765 
432 2 12.9511 5.25186 3.22813 944.739 
433 1 18.8737 4.27332 -0.627707 927.135 
434 1 18.8894 7.31393 2.1607 951.565 
435 1 21.5772 4.40519 2.20736 949.755 
436 1 21.4279 7.07689 -0.0920254 914.654 
437 2 21.5025 6.91959 2.5047 948.28 
438 2 21.6862 4.40465 -0.631791 931.984 
439 2 19.1743 6.87947 -0.979985 950.647 
440 2 18.4011 4.43409 1.73297 943.608 
441 1 24.4726 5.08281 -0.87179 959.746 
442 1 24.3636 7.49934 2.65635 939.62 
443 1 27.3016 4.63802 2.51822 935.709 
444 1 27.5546 7.02257 -0.402214 956.99 
445 2 27.159 7.12794 1.99124 962.01 
446 2 27.7406 4.59734 -0.206787 944.311 
447 2 24.3439 7.78138 -0.514571 919.072 
448 2 24.3575 4.00845 2.80101 941.806 
449 1 30.5591 4.00249 -0.872636 977.045 
450 1 30.4318 7.75088 2.91091 952.129 
451 1 33.4677 4.89083 2.52289 958.551 
452 1 33.0183 7.26568 -0.598097 964.81 
453 2 33.7879 7.25593 2.18994 949.92 
454 2 33.3161 4.41657 -0.180084 969.258 
455 2 30.3975 7.84031 -0.33259 963.43 
456 2 30.6337 4.73096 2.63275 964.862 
457 1 35.8684 4.40768 -0.753012 969.354 
458 1 36.3091 7.19436 3.01317 958.332 
459 1 38.9378 4.0498 2.13014 961.258 
460 1 39.1438 7.56745 0.0145826 987.481 
461 2 39.1813 6.6199 3.15874 967.587 
462 2 38.9656 4.00715 -0.784196 983.721 
463 2 36.0503 7.24745 -0.0864851 978.027 
464 2 36.1315 4.60416 2.77256 948.328 
465 1 41.8223 4.18988 -0.445588 978.153 
466 1 41.7628 6.77733 2.74404 940.853 
467 1 44.9013 4.21664 2.54761 967.445 
468 1 44.8887 7.41225 0.0234172 964.211 
469 2 44.7466 7.48547 2.72155 982.264 
470 2 44.2808 4.2293 -0.0889998 963.939 
471 2 42.0809 7.36296 -0.0909789 947.661 
472 2 41.7875 4.21653 2.43508 952.878 
473 1 47.8459 4.89896 0.0612034 988.586 
474 1 47.595 7.77626 2.93149 947.309 
475 1 50.9275 4.15315 2.95873 983.035 
476 1 50.553 7.21341 -0.184307 1000.71 
477 2 49.8971 7.13617 3.06748 976.731 
478 2 50.4216 4.32876 -0.225185 999.966 
479 2 47.3785 7.50684 0.0576906 952.083 
480 2 47.1262 4.18192 2.73327 991.33 
481 1 53.2855 3.73613 -0.42501 974.947 
482 1 53.5119 7.02362 2.86595 984.889 
483 1 56.1924 4.26344 2.72202 1003.49 
484 1 55.3867 7.11998 -0.797421 990.79 
485 2 56.0134 7.27885 2.37472 1002.99 
486 2 55.7658 4.41875 -0.22226 968.319 
487 2 53.0498 6.55141 -0.386771 982.576 
488 2 53.4217 4.01547 3.35833 975.571 
489 1 58.9426 4.54518 0.0248582 1008.18 
490 1 58.9184 7.4562 2.36652 1002.85 
491 1 61.3973 4.74409 2.41979 979.944 
492 1 62.2434 7.83167 -0.38525 979.339 
493 2 62.0601 7.46838 2.1195 971.052 
494 2 61.3185 4.1882 -0.208678 990.847 
495 2 58.8094 7.33843 -0.45741 987.024 
496 2 58.9954 4.74399 2.51695 994.647 
497 1 64.745 3.70277 -0.164847 1002.45 
498 1 65.0661 7.18941 2.57164 993.191 
499 1 67.1567 4.16108 3.34911 1019.53 
500 1 67.627 7.67789 -0.73227 998.848 
501 2 67.5354 7.18252 1.91809 1012.96 
502 2 67.7447 4.00261 -1.15732 984.222 
503 2 64.9129 7.80332 -1.08435 991.424 
504 2 64.619 4.20284 2.70864 982.182 
505 1 70.1642 4.07452 -1.01482 987.626 
506 1 69.9463 7.33539 2.57873 992.566 
507 1 73.2796 4.66545 2.4241 1032.05 
508 1 73.3288 7.49008 -0.643952 997.118 
509 2 73.4917 7.18915 2.27468 1008.62 
510 2 73.7881 4.32445 -0.751011 997.347 
511 2 70.6869 7.27577 -0.53087 996.716 
512 2 70.7473 4.35039 2.29361 1015.11 
513 1 77.1208 4.61304 -0.532025 1016.63 
514 1 76.5408 7.10481 2.20005 1008.53 
515 1 79.4699 3.82351 2.47345 1026.73 
516 1 79.553 7.58605 -0.498996 991.258 
517 2 79.3561 7.07385 2.12084 1014.5 
518 2 79.4834 3.21606 -0.152585 994.094 
519 2 77.1327 7.15779 -0.546966 1013.35 
520 2 76.937 4.50155 2.21431 1008.68 
521 1 82.0642 4.17775 -0.492809 1024.15 
522 1 81.9629 7.54538 2.47822 1014.86 
523 1 84.7363 4.25913 2.55267 1018.57 
524 1 84.8168 7.02166 -1.28209 1020.94 
525 2 85.0827 6.91425 2.39248 1006.76 
526 2 85.0475 4.45112 -0.628918 1018.18 
527 2 82.2223 6.6462 -1.13703 992.033 
528 2 82.1991 4.15694 3.12524 1013.21 
529 1 87.8055 4.32973 -0.803718 1024.18 
530 1 87.435 6.6583 3.14322 1031.06 
531 1 90.8265 4.37159 2.04662 1016.54 
532 1 90.182 6.83763 -0.550908 1025.82 
533 2 89.9313 7.06293 2.37729 1046.27 
534 2 90.3079 3.7517 -0.877152 1015.56 
535 2 87.2263 7.26662 -0.847847 1015.46 
536 2 88.0742 4.02686 2.46887 1031.22 
537 1 94.0719 4.19401 -1.33116 1028.98 
538 1 93.6666 7.31713 1.9451 1036.5 
539 1 96.5437 4.84311 2.30235 1040.33 
540 1 96.7378 7.27839 -0.216288 1019.08 
541 2 96.3358 7.65831 2.66862 1030.76 
542 2 97.0794 4.70812 -0.706681 1024.49 
543 2 93.4803 7.23907 -0.561368 1016.96 
544 2 94.0314 4.80425 1.817 1020.87 
545 1 99.6521 4.21823 -0.532914 1028.28 
546 1 99.9687 7.20933 2.99396 1032.6 
547 1 102.747 4.21662 2.79036 1031.27 
548 1 102.388 7.34286 -0.560511 1015.13 
549 2 102.695 7.40552 2.6594 1047.16 
550 2 102.48 4.69646 -0.225517 1029.64 
551 2 99.6791 7.44605 -0.630563 1026.87 
552 2 99.6499 4.41483 2.89606 1054.87 
553 1 105.167 3.93144 0.0715598 1026.46 
554 1 105.059 7.53155 2.11375 1038.11 
555 1 108.02 4.4789 2.60026 1050.71 
556 1 108.083 7.18838 -0.749081 1038.77 
557 2 108.135 7.45444 2.26964 1061.94 
558 2 108.305 4.17439 0.00168107 1061.92 
559 2 105.369 8.01672 -0.862646 1060.39 
560 2 105.458 4.46026 2.76157 1031.88 
561 1 111.103 4.51131 -0.206433 1032.18 
562 1 111.816 7.45845 2.14526 1052.68 
563 1 114.027 4.09475 2.37467 1042.66 
564 1 114.774 7.04376 -0.871349 1040.22 
565 2 114.267 7.44417 2.64361 1024.45 
566 2 113.763 4.57954 -0.318838 1040.1 
567 2 111.03 7.26205 -0.241108 1038.82 
568 2 110.959 3.89114 2.38339 1064.97 
569 1 117.661 4.29873 -1.02196 1054.82 
570 1 117.565 7.20417 2.29032 1051.46 
571 1 119.983 4.02709 1.98245 1056.78 
572 1 120.196 7.66291 -0.482717 1063.25 
573 2 119.959 7.31156 2.77736 1067.35 
574 2 119.924 4.2711 -0.967916 1064.63 
575 2 117.234 7.255 -0.149165 1053.78 
576 2 116.977 4.42466 2.55749 1024.48 
577 1 123.382 4.23774 -0.559507 1060.29 
578 1 123.246 7.19389 2.64933 1063.29 
579 1 125.907 4.72102 2.60455 1073.82 
580 1 126.153 7.62107 -0.031264 1079.66 
581 2 126.264 7.34664 2.5836 1047.49 
582 2 125.84 4.37172 -0.225509 1092.47 
583 2 123.169 7.53332 -0.421169 1056 
584 2 123.016 4.46087 2.0989 1062.59 
585 1 128.731 4.13229 -0.259553 1086.77 
586 1 128.983 7.57879 2.34296 1068.36 
587 1 131.331 4.06453 2.74866 1084.68 
588 1 131.788 7.30811 -0.767135 1085.8 
589 2 131.605 7.27402 2.27363 1089.74 
590 2 131.599 4.2154 -0.146205 1095.84 
591 2 128.634 7.63682 -0.353891 1080.34 
592 2 128.573 4.72606 2.70453 1064.33 
593 1 134.279 3.96969 -0.0552091 1087.19 
594 1 134.348 6.64076 2.34119 1107.54 
595 1 137.871 3.83584 2.39793 1088.58 
596 1 137.207 6.8759 -0.089398 1085.19 
597 2 137.499 7.20081 2.26347 1076.59 
598 2 137.266 4.19476 -0.473358 1097.08 
599 2 134.589 7.48458 -0.237813 1094.37 
600 2 134.276 4.03096 2.50309 1099.43 
601 1 140.512 4.37746 -0.473902 1091.97 
602 1 140.628 7.24204 2.53138 1073.43 
603 1 143.477 4.06802 2.41997 1103.41 
604 1 143.618 7.05413 -0.585038 1098.91 
605 2 143.435 6.96715 2.08283 1096.79 
606 2 143.128 3.70204 -0.56587 1088.01 
607 2 140.344 7.05086 -0.308723 1081.24 
608 2 140.492 4.16977 2.52074 1094.81 
609 1 147.095 3.99809 -0.342653 1087.86 
610 1 146.452 6.81591 2.09075 1095.54 
611 1 149.458 4.15655 2.95966 1065.22 
612 1 150.102 7.41817 -0.853083 1075.93 
613 2 149.643 6.68514 2.47092 1074.03 
614 2 149.565 4.11307 -0.834524 1088.06 
615 2 146.854 6.97343 -0.36473 1107.39 
616 2 146.549 3.89187 2.50505 1088.84 
617 1 152.783 4.20378 -0.876371 1079.92 
618 1 152.932 7.36898 1.69991 1079.3 
619 1 155.67 4.50149 2.16796 1100.72 
620 1 155.696 7.12901 -0.247341 1065.47 
621 2 155.481 7.49614 2.27034 1079.67 
622 2 155.696 4.34037 -0.905191 1052.28 
623 2 152.859 7.58419 -0.927603 1060.1 
624 2 152.971 4.40825 1.86895 1093.9 
625 1 158.873 4.40662 -0.743445 1087.73 
626 1 158.641 8.08294 2.34994 1089.86 
627 1 161.314 4.92302 2.55763 1090.09 
628 1 161.123 7.50602 -1.11907 1068.78 
629 2 161.128 7.61279 1.5864 1080.7 
630 2 161.359 4.35954 -0.315309 1057.91 
631 2 158.285 7.5011 -0.749558 1078.29 
632 2 158.426 4.21662 2.27217 1077.67 
633 1 163.885 4.79668 -1.42475 1034.34 
634 1 163.883 7.53878 1.86305 1060.33 
635 1 166.728 4.53925 2.63948 1048.98 
636 1 166.275 7.07973 -0.82782 1049.68 
637 2 166.565 7.4262 2.26342 1046.06 
638 2 166.553 4.47271 -1.10344 1042.47 
639 2 163.692 7.72761 -1.42244 1066.3 
640 2 163.787 4.3913 2.40501 1058.23 
641 1 169.588 4.88887 -0.560762 1042.81 
642 1 169.263 7.5302 2.05829 1062.72 
643 1 172.622 5.17056 2.50931 1061.68 
644 1 172.892 7.87864 -0.654246 1074.63 
645 2 171.848 7.53443 1.75037 1057.66 
646 2 172.919 4.81105 -1.49236 1059.06 
647 2 169.193 7.32729 -0.691399 1047.26 
648 2 169.635 4.65524 2.30533 1052.04 
649 1 175.886 4.7924 -1.31531 1062.33 
650 1 176.05 7.74179 2.09807 1057.89 
651 1 179.007 4.2996 1.82522 1057.18 
652 1 178.872 7.40384 -1.05003 1054.12 
653 2 178.887 7.5107 2.02701 1046.55 
654 2 179.043 4.36935 -1.01981 1058.13 
655 2 175.687 7.90462 -0.784204 1045.51 
656 2 176.625 4.18108 1.94888 1056.07 
657 1 182.143 5.13226 -0.653214 1032.91 
658 1 181.483 7.69829 2.30219 1067.57 
659 1 184.632 4.30893 2.43372 1027.04 
660 1 184.652 7.28129 -0.139026 1050.25 
661 2 184.45 8.22675 2.177 1033.42 
662 2 184.586 4.66386 -0.437007 1019.02 
663 2 182.026 7.59918 -0.82744 1034.4 
664 2 182.063 5.00828 1.94298 1017.25 
665 1 187.365 4.29755 -1.18734 991.737 
666 1 187.144 7.94722 2.28605 1020.09 
667 1 190.09 4.67996 1.87567 1028.78 
668 1 189.782 7.27902 0.0264908 1030.36 
669 2 190.441 7.68622 2.28466 1019.11 
670 2 190.339 4.47948 -0.768538 1023.36 
671 2 187.188 7.53645 -0.324 1032.41 
672 2 187.417 4.58572 2.19894 1027.24 
673 1 193.385 4.73366 -0.489269 1022.29 
674 1 193.135 7.32173 2.22144 1003.11 
675 1 196.548 4.54139 2.80713 1005.02 
676 1 196.503 8.03905 -0.551689 1010.83 
677 2 196.24 7.46922 2.2963 993.892 
678 2 195.837 4.6697 -1.03395 1016.51 
679 2 192.674 7.2358 -1.09305 1003.28 
680 2 193.104 4.58715 2.38127 1018.62 
681 1 198.938 4.48008 -1.40087 991.391 
682 1 198.768 7.54563 2.58237 988.981 
683 1 201.536 4.58014 2.30639 1018.33 
684 1 202.056 8.33159 0.0332965 993.443 
685 2 201.964 8.11747 2.91214 1019.21 
686 2 202.097 5.05925 -1.01779 1016.16 
687 2 199.294 8.02059 -0.302247 1008.67 
688 2 198.932 4.52678 2.20859 1013.55 
689 1 204.499 5.48097 -1.19154 1021.16 
690 1 205.446 8.45538 2.07917 998.33 
691 1 207.333 5.90657 2.36791 1013 
692 1 207.491 7.93037 -0.643374 989.869 
693 2 208.036 7.91383 1.87678 998.712 
694 2 207.906 5.13549 -0.376976 1033.65 
695 2 204.766 7.8509 -0.453146 985.444 
696 2 204.668 4.94047 2.18312 983.781 
697 1 210.536 5.16652 -0.341873 980.177 
698 1 210.7 8.38263 2.09947 1008.15 
699 1 213.392 5.39273 2.56511 998.407 
700 1 213.667 8.29542 -0.463749 980.35 
701 2 213.33 8.1099 2.13213 985.328 
702 2 213.702 5.12086 0.00693828 990.753 
703 2 210.801 7.84726 -0.677986 975.597 
704 2 210.678 5.63692 2.44569 983.575 
705 1 216.246 5.32082 -0.591546 981.725 
706 1 216.429 8.02784 2.26449 988.104 
707 1 219.317 5.10551 2.42015 960.954 
708 1 219.178 8.08553 -0.0313529 978.975 
709 2 219.307 7.80816 2.56146 980.047 
710 2 219.062 5.33757 -0.965469 982.998 
711 2 216.458 8.0957 -0.656204 997.213 
712 2 216.435 5.21476 2.77734 975.669 
713 1 222.165 5.17255 -0.72401 971.716 
714 1 222.034 7.4241 2.42021 962.753 
715 1 225.268 4.27325 2.50399 999.988 
716 1 225.017 8.54474 -0.150807 998.011 
717 2 224.893 7.70192 2.8302 973.985 
718 2 225.603 4.98904 -0.0350958 976.003 
719 2 222.078 7.98675 -0.503391 988.712 
720 2 222.119 4.69517 2.34555 968.087 
721 1 228.004 4.92672 -0.461755 977.094 
722 1 227.805 7.63503 2.75561 973.098 
723 1 231.056 4.62168 2.06591 972.889 
724 1 231.28 8.44804 -0.252649 973.055 
725 2 230.322 8.33958 2.9479 985.434 
726 2 231.24 4.98743 -0.492964 963.514 
727 2 227.571 8.14335 0.0311369 972.836 
728 2 227.822 4.56926 2.39212 980.307 
729 1 234.124 4.68545 1.12051e-05 961.74 