ITEM: TIMESTEP
5500000
ITEM: NUMBER OF ATOMS
8400
ITEM: BOX BOUNDS pp pp pp
-5.9099547646241319e+00 2.8359995476463484e+02
-2.1446273254920634e+00 4.0174627325491812e+01
-1.7757301867509554e+00 1.6325730186751606e+01
ITEM: ATOMS id type x y z f_TolTpA 
1 1 -4.86215 39.999 -1.08716 884.98 
2 1 -3.99551 1.327 2.27857 891.552 
3 1 -1.43763 40.1569 2.07121 903.335 
4 1 -1.62915 0.811167 -0.557954 894.582 
5 2 -1.51745 0.677606 2.37438 897.449 
6 2 -1.71743 -2.09867 -0.745523 907.135 
7 2 -4.38229 1.35967 -0.353336 896.822 
8 2 -4.48646 -2.06885 2.46309 897.437 
9 1 1.26178 -1.9107 -0.847922 926.958 
10 1 1.51681 0.776471 2.20369 917.993 
11 1 4.39385 -1.42515 2.04814 917.817 
12 1 4.43838 1.22279 -0.442292 922.341 
13 2 4.15888 0.940826 2.35352 924.832 
14 2 4.66149 -1.54127 -0.813685 928.806 
15 2 0.885343 1.17704 -0.267979 900.682 
16 2 1.73741 -2.03808 2.54745 910.012 
17 1 7.50271 -1.54355 -0.883028 926.308 
18 1 7.15925 1.60771 2.54044 905.744 
19 1 10.1296 -1.41702 2.53809 935.311 
20 1 10.1526 1.6714 -0.593944 914.981 
21 2 9.84055 1.7539 2.34679 920.675 
22 2 10.1938 -1.45788 -0.622503 913.457 
23 2 7.15409 0.965961 -0.855557 911.417 
24 2 7.26896 -1.48245 2.19241 921.487 
25 1 12.7833 -1.18422 -0.466582 943.431 
26 1 12.9135 1.39331 2.76935 929.645 
27 1 15.5771 -1.24784 3.30423 942.834 
28 1 15.4869 2.54736 -0.529406 939.942 
29 2 15.6085 1.16886 2.74885 940.499 
30 2 15.5666 -1.86044 -0.786875 936.268 
31 2 13.093 1.44365 -0.271279 936.476 
32 2 13.0176 -1.57476 2.70972 924.212 
33 1 17.8858 -2.12394 0.104054 930.134 
34 1 18.2037 0.909769 2.34857 932.316 
35 1 21.349 40.0093 3.02114 918.782 
36 1 21.1861 0.966037 -0.243924 940.959 
37 2 21.3614 1.16489 2.7496 953.129 
38 2 21.6237 -2.03853 0.399575 935.171 
39 2 18.5977 0.664956 0.0642323 923.91 
40 2 18.4729 39.8724 3.08532 939.663 
41 1 24.4839 39.9792 -0.187959 936.601 
42 1 23.997 0.454595 2.94645 941.744 
43 1 27.4066 40.0345 2.87078 937.183 
44 1 26.9748 0.834918 -0.295942 920.716 
45 2 27.3624 0.977051 2.29137 933.741 
46 2 27.0008 -1.99986 -0.714913 953.773 
47 2 24.522 0.964915 -0.0670192 927.658 
48 2 24.9881 -1.89039 2.90368 924.867 
49 1 30.1615 -1.34803 -1.30419 939.92 
50 1 29.7899 0.862379 2.76659 927.44 
51 1 32.9764 -1.38925 2.14531 951.798 
52 1 32.6494 1.13681 -1.06697 947.016 
53 2 32.3418 1.18491 1.4246 940.347 
54 2 32.8099 -1.69201 -1.41522 950.653 
55 2 30.0694 1.11507 -0.991329 932.987 
56 2 29.8948 -1.56749 3.03311 955.173 
57 1 36.1755 -1.19552 -0.593915 957.943 
58 1 35.6173 1.27118 2.65374 956.946 
59 1 38.3822 -1.60704 2.49609 932.346 
60 1 38.5937 1.47468 -0.327943 942.328 
61 2 38.2425 1.32605 2.27564 942.367 
62 2 38.6198 -1.21619 -0.367157 971.733 
63 2 35.5628 1.31534 -0.639391 963.035 
64 2 35.7414 -1.30702 2.16351 957.3 
65 1 41.6256 -1.86461 -0.445965 951.126 
66 1 41.5691 1.28779 2.34802 961.878 
67 1 44.5051 -1.28258 2.66557 966.313 
68 1 44.6002 0.967977 -0.29615 973.635 
69 2 44.3735 1.44676 2.78357 988.102 
70 2 44.3232 -1.60269 -0.0367965 950.679 
71 2 41.8399 1.05105 -0.54468 982.43 
72 2 41.4287 -1.5188 2.46049 966.104 
73 1 47.4956 -1.14664 -1.29749 968.927 
74 1 47.1407 2.1302 2.34826 975.267 
75 1 49.8573 -1.9822 2.17192 939.934 
76 1 49.9804 1.4879 -0.447186 950.111 
77 2 49.7785 1.78072 2.42368 964.144 
78 2 50.4982 -1.07565 -0.462962 968.829 
79 2 47.2865 1.50778 -0.556887 954.644 
80 2 47.1445 -1.74021 2.64653 974.051 
81 1 53.3227 -1.12613 -0.915167 985.59 
82 1 53.1369 1.24062 1.9849 985.693 
83 1 56.4827 -1.65554 1.53889 983.361 
84 1 56.0607 1.83444 -0.659091 984.958 
85 2 56.0481 1.33314 2.45379 988.123 
86 2 56.6593 -1.59755 -1.06446 988.46 
87 2 53.327 1.40833 -0.486312 973.029 
88 2 53.6184 -1.55383 2.06035 962.772 
89 1 59.305 -1.46552 -1.00871 982.176 
90 1 58.8986 1.21141 2.7394 993.992 
91 1 61.9829 -1.08056 1.98992 1000.12 
92 1 61.5755 1.88707 -1.12971 964.514 
93 2 61.8721 1.61973 2.22128 998.958 
94 2 62.2197 -1.01016 -1.28315 1002.5 
95 2 58.8462 1.71456 -0.997427 970.28 
96 2 59.3037 -1.30241 1.91695 1013.34 
97 1 65.1826 -1.20439 -1.1949 987.001 
98 1 64.8526 1.44954 2.1848 986.873 
99 1 67.7931 -1.18905 1.99004 1008.88 
100 1 67.9566 2.27074 -1.02154 1016.71 
101 2 68.031 1.39506 1.98709 1000.12 
102 2 67.8364 -1.31808 -0.933692 1008.99 
103 2 64.9685 1.76432 -0.831636 983.017 
104 2 64.9468 -1.58871 2.43001 1000.89 
105 1 70.5146 -1.1044 -0.840105 990.367 
106 1 70.6137 1.50574 2.45671 996.826 
107 1 73.8549 -1.71068 1.5655 1008.62 
108 1 73.856 1.29646 -0.955676 989.049 
109 2 73.7616 1.61713 2.84101 988.481 
110 2 73.9959 -1.44543 -0.926518 996.154 
111 2 71.2693 1.5117 -1.11645 977.588 
112 2 70.6851 -1.26442 1.92704 1007.15 
113 1 76.7776 -1.82087 -0.737637 1001.73 
114 1 76.8075 1.76609 2.7283 1013.97 
115 1 79.1947 -1.42994 2.63301 989.894 
116 1 79.3246 1.74653 -0.783322 1007.4 
117 2 79.3852 1.52582 2.83726 1017.55 
118 2 79.1184 -1.15265 -0.55903 1010.84 
119 2 76.6099 1.00389 -0.821987 995.049 
120 2 76.6274 -1.59908 2.76467 999.982 
121 1 82.2957 -1.00518 -0.486664 1021.78 
122 1 81.8956 1.87652 2.77103 1015.91 
123 1 85.2746 -0.990303 2.30694 1012.97 
124 1 84.8578 1.42756 -1.53975 1037.6 
125 2 84.7167 2.17699 2.50553 1034.77 
126 2 84.9219 -1.36787 -0.852933 1026.93 
127 2 82.2785 1.47969 -1.05988 994.816 
128 2 82.2013 -1.53751 2.27278 1026.38 
129 1 88.4855 -1.89527 -0.528416 1017.47 
130 1 87.782 1.81273 2.3395 1062.75 
131 1 91.1272 -1.1876 2.25234 1029.42 
132 1 90.7618 2.52005 -1.1757 1015.92 
133 2 90.9136 2.34488 1.90441 1037.1 
134 2 90.9657 -1.61834 -0.326433 1027.73 
135 2 87.933 2.36905 -0.928693 1029.68 
136 2 87.9667 -1.50285 2.50556 1013 
137 1 93.763 -1.61732 -1.02899 1033.81 
138 1 93.2731 1.58923 1.80656 1016.99 
139 1 96.728 -0.95414 2.53627 1026.17 
140 1 97.1337 1.47644 -0.640104 1055.95 
141 2 97.3913 1.62509 2.12232 1030.65 
142 2 96.5617 -1.65956 -0.514291 1020.7 
143 2 94.0279 1.93542 -0.891359 1031.99 
144 2 93.9818 -0.873935 2.10673 1039.24 
145 1 99.2809 -1.8085 -0.880723 1046.57 
146 1 100.092 2.34163 1.96321 1036.67 
147 1 102.084 -1.05205 2.02338 1056.97 
148 1 102.539 1.78959 -0.666668 1046.64 
149 2 102.704 2.12424 2.08886 1053.15 
150 2 102.662 -1.15171 -0.622422 1060.23 
151 2 99.8011 2.36785 -0.594867 1030.89 
152 2 99.1389 -1.53371 1.82348 1034.03 
153 1 105.684 -1.04648 -0.837838 1044.71 
154 1 105.183 1.46713 2.7799 1056.23 
155 1 108.148 -1.64588 1.90337 1052.85 
156 1 108.166 1.81695 -0.318962 1065.75 
157 2 108.045 1.41666 2.13226 1044.62 
158 2 108.567 -1.26275 -0.541883 1057.11 
159 2 105.686 2.08059 -1.03094 1024.22 
160 2 105.538 -1.3155 2.29431 1038.43 
161 1 111.32 -0.938523 -0.647825 1040.82 
162 1 111.259 2.21224 2.70741 1063.69 
163 1 114.309 -0.778111 2.87379 1053.83 
164 1 114 1.73154 -0.18371 1080.75 
165 2 114.431 2.03773 2.87227 1041.56 
166 2 114.038 -0.675469 -0.108094 1067.92 
167 2 111.314 2.57277 0.0570354 1058.56 
168 2 111.037 -0.83037 2.83227 1062.67 
169 1 116.656 -1.67576 -0.891092 1089.35 
170 1 117.231 2.15855 2.26475 1047.71 
171 1 119.903 -0.450327 2.82619 1080.55 
172 1 120.098 2.22797 -0.481607 1063.79 
173 2 119.925 2.09985 2.93048 1064.11 
174 2 119.098 -0.474769 0.104063 1069.46 
175 2 117.125 2.67382 -0.694417 1069.08 
176 2 117.06 -1.00576 3.11729 1078.19 
177 1 123.004 -0.468917 -0.124716 1098.2 
178 1 122.589 2.22157 2.93923 1073.17 
179 1 126.013 -1.03926 2.96384 1062.34 
180 1 125.469 2.65247 0.613274 1103.86 
181 2 125.579 1.90751 3.08362 1074.83 
182 2 125.83 -0.315427 0.150654 1083.88 
183 2 122.531 2.03275 0.167803 1078.16 
184 2 122.485 -0.712972 2.46411 1071 
185 1 128.466 -1.14724 -0.0989586 1092.15 
186 1 128.871 2.1922 2.62272 1088.04 
187 1 131.302 -0.941828 2.48886 1068.2 
188 1 131.413 1.84415 -0.446143 1073.66 
189 2 131.605 2.21437 2.1973 1078.97 
190 2 131.897 -1.04349 -0.131422 1079.61 
191 2 128.707 2.31812 -0.0219033 1084.78 
192 2 128.637 -0.46477 2.2708 1086.97 
193 1 134.799 -0.922173 -0.247898 1091.36 
194 1 133.985 2.32534 3.06823 1091.33 
195 1 137.84 -0.963044 3.03559 1115.72 
196 1 137.494 2.02063 0.242412 1081.39 
197 2 137.704 1.76096 3.29922 1096.39 
198 2 137.912 -0.493488 -0.186393 1097.03 
199 2 134.826 1.87795 -0.345469 1088.45 
200 2 134.345 -1.49822 2.6416 1089.85 
201 1 140.766 -1.02727 0.0901796 1094.11 
202 1 140.451 2.07304 2.95004 1113.87 
203 1 143.346 -1.22658 2.62173 1104.85 
204 1 143.399 2.0023 -0.49725 1121 
205 2 143.425 1.98206 2.26344 1121.36 
206 2 143.507 -1.74639 -0.218295 1102.98 
207 2 140.529 2.45175 -0.134003 1095.49 
208 2 140.359 -1.58694 2.89684 1077.33 
209 1 146.371 -1.51384 -0.372535 1078.09 
210 1 145.927 1.92456 2.52523 1086.21 
211 1 149.192 -0.558187 2.87898 1105.6 
212 1 148.978 1.85262 -0.216475 1105.11 
213 2 149.361 1.94432 2.71811 1089.25 
214 2 149.325 -0.975101 -0.246428 1083.93 
215 2 146.105 1.50183 -0.662488 1072.48 
216 2 146.431 -0.749752 2.6009 1096.7 
217 1 151.95 -0.544274 -0.0319691 1091.14 
218 1 152.285 2.37437 2.78656 1087.14 
219 1 154.771 -0.757074 2.76943 1106.45 
220 1 155.316 2.03863 -0.436235 1064.56 
221 2 155.303 1.95676 2.48405 1063.69 
222 2 155.004 -0.704016 -0.182741 1081.54 
223 2 151.621 2.15355 -0.224442 1112.48 
224 2 152.284 -0.543651 2.92092 1093.24 
225 1 157.992 -1.38064 -0.133535 1076.01 
226 1 157.776 1.94733 2.27882 1096.24 
227 1 161.169 -1.2081 3.27926 1092.72 
228 1 160.711 0.877075 0.374535 1083.99 
229 2 161.154 1.55846 2.66819 1082.92 
230 2 161.386 -1.20783 -0.564529 1090.09 
231 2 158.403 1.64928 -0.484686 1083.36 
232 2 157.866 -0.78079 2.30843 1086.18 
233 1 163.956 -1.29494 -0.144573 1073.92 
234 1 164.077 1.08501 3.25957 1072.44 
235 1 167.1 -1.38511 2.16148 1065.2 
236 1 166.421 2.22124 0.353614 1053.62 
237 2 166.378 1.03376 3.28926 1058.4 
238 2 166.965 -1.45147 -0.574669 1064.69 
239 2 163.869 1.76563 -0.0865771 1054.8 
240 2 163.538 -1.42205 2.49353 1080.55 
241 1 169.862 -1.9189 -0.660462 1062.67 
242 1 169.323 1.53374 2.72656 1051.14 
243 1 172.807 -1.23145 3.11622 1039.79 
244 1 172.605 1.51594 -0.174239 1068.12 
245 2 172.46 1.26112 2.57587 1040.89 
246 2 172.225 40.0223 0.191161 1054.97 
247 2 169.835 1.86591 -0.0856421 1080 
248 2 169.473 -0.918317 3.20927 1044.85 
249 1 174.84 40.1496 0.0397552 1038.52 
250 1 175.757 2.31414 2.4162 1040.88 
251 1 178.367 -1.46506 2.68332 1039.23 
252 1 178.742 1.83569 -0.652577 1043.49 
253 2 178.292 1.72278 2.98171 1041.51 
254 2 178.775 -1.54554 -0.248475 1029.72 
255 2 176.311 2.36621 -0.609066 1030.79 
256 2 175.302 -1.8958 2.70236 1067.04 
257 1 181.553 -1.40287 -0.362238 1072.99 
258 1 181.486 1.29697 2.52112 1062.99 
259 1 184.097 -1.81182 3.13952 1047.76 
260 1 184.235 1.78731 -0.113739 1038.89 
261 2 184.042 1.63314 2.57815 1039.95 
262 2 184.055 -1.60796 -0.337021 1022.05 
263 2 181.289 2.13019 -0.374827 1021 
264 2 181.098 -1.23083 2.05794 1048.26 
265 1 187.054 -1.20421 -0.131837 1030.62 
266 1 187.008 1.85808 3.17564 1030.6 
267 1 189.531 -1.3344 1.87147 1018.95 
268 1 189.609 1.36169 -0.735612 1043.9 
269 2 189.821 1.67325 2.33458 1035.1 
270 2 189.766 -1.44213 -0.499759 1034.39 
271 2 187.006 1.97453 -0.311868 1019.6 
272 2 186.889 -1.58541 2.50804 1024.73 
273 1 192.92 -1.48236 -0.3097 1050.47 
274 1 193.108 1.6551 2.43395 1023.99 
275 1 195.547 -1.84796 2.61721 1001.07 
276 1 195.767 2.05364 -0.413434 1016.82 
277 2 195.908 2.05835 2.45798 1006.44 
278 2 195.456 -1.91806 -0.671067 1020.55 
279 2 192.767 1.34179 -0.386472 1048.6 
280 2 192.809 -1.79823 2.77443 1036.91 
281 1 198.598 -0.928728 -0.817639 1041.58 
282 1 199.057 1.11306 2.7172 1018.78 
283 1 202.016 -1.70858 2.16335 1026.28 
284 1 201.85 1.80365 -0.0375102 994.117 
285 2 202.135 1.35811 2.47807 1012.47 
286 2 200.95 -1.83592 -0.327808 1003.64 
287 2 198.923 1.675 0.139951 1028.36 
288 2 198.179 -1.61197 2.92128 1009.64 
289 1 205.018 -1.15096 -0.65443 1021.06 
290 1 204.853 1.95445 2.01553 1017.95 
291 1 207.617 -1.08879 2.50093 1004.36 
292 1 207.813 1.84549 -0.788738 1003.5 
293 2 207.341 1.96908 2.04924 1014.04 
294 2 207.647 -1.47044 -0.726703 1013.34 
295 2 204.54 1.86062 -0.650314 1008.48 
296 2 204.806 -1.44761 2.57317 1005.6 
297 1 210.457 -0.769141 0.0431118 988.647 
298 1 210.961 1.81769 2.78884 1006.02 
299 1 213.222 -1.04462 2.75785 1007.79 
300 1 213.191 1.43969 -0.483586 984.912 
301 2 213.271 2.28384 2.47894 985.066 
302 2 213.263 -1.29718 0.414739 992.678 
303 2 210.153 1.47196 -0.194511 977.622 
304 2 210.388 -1.12113 2.59087 990.846 
305 1 216.319 -1.16187 -0.206991 988.557 
306 1 216.274 1.52729 3.14064 1002.76 
307 1 219.602 -0.549726 1.83399 1013.5 
308 1 219.162 1.41198 -0.854955 986.763 
309 2 219.564 1.99448 2.95212 989.805 
310 2 218.844 -1.27516 -0.283532 989.958 
311 2 216.704 1.56541 -0.286325 982.934 
312 2 216.573 -1.00417 2.5626 998.07 
313 1 222.242 -1.38261 -0.91475 989.755 
314 1 222.357 2.52802 2.63054 975.579 
315 1 225.187 -1.29295 2.2203 990.896 
316 1 224.724 1.5111 -0.2386 986.559 
317 2 224.976 2.08667 2.52058 993.762 
318 2 225.021 -1.13493 -0.547336 968.502 
319 2 222.012 1.20868 -0.523247 995.963 
320 2 222.041 -1.37887 2.43657 996.062 
321 1 228.071 -1.11746 -0.0260407 990.848 
322 1 228.177 1.20274 2.60641 967.279 
323 1 230.88 -1.48088 2.13933 980.941 
324 1 231.016 1.16214 -1.24807 961.578 
325 2 231.061 1.05965 2.49648 970.879 
326 2 230.982 -1.4399 -0.586995 979.886 
327 2 228.096 1.4746 -0.930707 964.398 
328 2 227.657 -1.50923 2.47722 982.017 
329 1 233.961 -1.0184 -0.299023 980.884 
330 1 233.731 1.16114 2.42892 979.459 
331 1 236.448 -1.77939 2.53751 956.628 
332 1 236.839 1.93364 -0.204592 983.659 
333 2 236.467 1.52851 2.67783 975.194 
334 2 236.712 -1.82141 0.101889 975.128 
335 2 233.746 1.36331 -1.21726 963.073 
336 2 233.758 -1.21332 2.49792 996.01 
337 1 239.614 -1.92393 -0.373186 969.099 
338 1 239.214 1.43079 3.27107 972.754 
339 1 241.887 -1.74052 2.98293 967.337 
340 1 242.354 1.30703 -0.419528 954.693 
341 2 242.182 1.21482 2.7913 981.778 
342 2 242.655 -1.94483 -0.417273 969.887 
343 2 239.555 1.66149 -1.06499 960.075 
344 2 239.136 -2.13903 2.44585 988.603 
345 1 245.241 -1.90568 -0.896716 957.143 
346 1 245.286 1.26585 2.54126 932.13 
347 1 248.178 -1.65023 2.6583 964.961 
348 1 248.483 1.24692 0.171305 950.641 
349 2 248.371 1.27203 2.75157 972.471 
350 2 248.27 -1.51496 -0.111082 987.052 
351 2 245.55 0.908452 -0.452442 950.414 
352 2 244.911 -1.41825 2.97303 954.074 
353 1 251.327 -1.89665 -0.918634 955.075 
354 1 251.37 1.29402 2.87681 955.201 
355 1 253.627 -1.60489 2.75831 933.574 
356 1 254.327 1.45544 -0.226999 943.625 
357 2 254.446 1.37147 2.55968 942.457 
358 2 253.945 -2.02447 -0.415159 948.594 
359 2 251.496 1.50612 0.182082 944.269 
360 2 251.241 -2.08308 2.31615 958.909 
361 1 256.883 -2.13459 -0.017562 948.707 
362 1 256.83 1.91885 2.60802 939.024 
363 1 259.455 -1.57803 2.60747 924.89 
364 1 259.869 2.12453 -0.511325 950.936 
365 2 259.725 1.21826 2.15307 946.769 
366 2 259.747 40.0951 -0.372994 942.329 
367 2 257.114 1.61354 -0.66225 933.979 
368 2 256.21 40.054 2.50715 930.977 
369 1 262.72 -2.02513 -0.60498 923.511 
370 1 262.861 1.12475 1.95376 935.655 
371 1 265.54 -1.75903 2.48834 924.385 
372 1 265.444 0.952362 -0.755669 925.066 
373 2 265.604 1.26489 1.98653 947.534 
374 2 265.073 -2.06182 -0.872674 924.099 
375 2 262.536 1.58619 -0.429949 941.054 
376 2 262.21 -1.57852 2.51237 937.455 
377 1 268.339 -2.08848 -0.206809 931.118 
378 1 268.096 1.30788 2.03031 934.638 
379 1 271.108 -1.52067 2.27104 909.434 
380 1 270.927 1.16541 -0.694426 912.012 
381 2 271.124 1.14523 2.23349 929.497 
382 2 271.059 -2.02737 -0.780712 922.022 
383 2 268.12 0.914201 -1.03507 924.866 
384 2 268.179 -1.351 2.24239 939.543 
385 1 273.995 -1.92421 -0.404151 931.567 
386 1 274.193 1.04789 2.36625 908.247 
387 1 276.728 39.8132 2.56886 912.107 
388 1 276.766 1.47917 -0.0525599 911.95 
389 2 277.033 1.60686 2.68048 919.154 
390 2 277.076 40.0999 -0.26762 921.101 
391 2 274.108 1.02179 -0.445679 946.936 
392 2 274.1 -2.0033 2.37523 914.158 
393 1 279.587 39.8991 -0.277513 903.648 
394 1 280.369 1.51963 2.0417 897.915 
395 1 282.418 39.9213 2.66524 889.427 
396 1 282.331 0.67166 -0.393118 909.97 
397 2 282.667 0.491003 2.70336 897.958 
398 2 282.214 -2.04743 -0.741146 923.626 
399 2 279.883 1.34304 -0.182347 893.223 
400 2 279.404 39.5664 2.79219 897.127 
401 1 -4.23263 4.49045 -0.292035 897.33 
402 1 -4.03603 7.27525 2.64016 892.884 
403 1 -1.29341 4.24908 2.4604 904.117 
404 1 -1.10272 7.04705 0.069574 902.587 
405 2 -1.40504 6.93801 2.78589 910.882 
406 2 -1.35149 4.37081 -0.226584 898.722 
407 2 -3.94334 7.7048 -0.297629 912.402 
408 2 -4.19487 4.15839 2.43614 891.303 
409 1 1.81376 4.27812 -0.390008 885.168 
410 1 1.50164 8.05869 2.77019 913.688 
411 1 4.42258 5.09666 3.14973 905.289 
412 1 4.44017 7.83553 -0.204659 909.568 
413 2 4.13895 7.64471 2.36637 926.948 
414 2 4.42288 4.43003 -0.248225 921.299 
415 2 1.27198 7.7117 -0.228707 910.604 
416 2 1.96961 4.45463 3.07153 894.069 
417 1 6.98746 3.99982 -0.354241 905.847 
418 1 6.81615 7.59152 2.37545 927.002 
419 1 9.64527 4.90943 2.4201 909.303 
420 1 10.0429 7.70442 -0.995588 902.191 
421 2 9.88808 7.5797 1.95579 924.276 
422 2 9.90732 4.56012 -0.631815 910.257 
423 2 7.3374 8.25991 -0.394796 917.189 
424 2 7.14358 4.44813 2.46033 911.514 
425 1 13.2612 4.41615 -0.737361 917.32 
426 1 12.8824 7.59434 2.34907 909.858 
427 1 16.0618 5.04765 3.23439 910.299 
428 1 15.5524 8.00127 -0.702315 922.875 
429 2 15.9852 7.72327 2.80468 930.451 
430 2 16.1717 5.04637 -0.425875 937.47 
431 2 12.7134 7.48289 -0.366097 924.693 
432 2 13.1942 4.86786 2.84597 926.753 
433 1 18.4406 5.09599 -0.0316446 930.118 
434 1 18.8801 7.44416 2.62813 916.429 
435 1 21.0827 4.468 2.14449 911.596 
436 1 21.2656 8.25392 -0.542509 926.605 
437 2 21.4692 7.54292 1.87383 929.817 
438 2 20.9838 4.05226 -0.320962 951.209 
439 2 18.2689 7.72021 -0.703614 934.103 
440 2 18.5948 4.90187 2.46131 921.244 
441 1 23.8656 4.13097 -0.687424 944.405 
442 1 24.2117 7.44822 1.92795 941.268 
443 1 27.2089 3.671 1.91448 952.812 
444 1 26.9888 7.56494 -0.836944 937.808 
445 2 27.1624 7.45099 2.1053 956.855 
446 2 26.7223 4.62861 -0.59064 926.108 
447 2 24.1884 7.54967 -0.594879 956.845 
448 2 23.934 4.74259 2.45319 940.576 
449 1 30.0869 4.2662 -0.65627 923.016 
450 1 29.9974 7.67725 1.90558 945.301 
451 1 32.4886 3.83234 2.07651 939.432 
452 1 33.2914 7.48762 -0.686324 933.856 
453 2 32.9367 7.62572 2.42277 952.214 
454 2 32.794 4.95402 -0.402783 930.648 
455 2 29.9875 8.0925 -0.908964 967.072 
456 2 29.8324 4.59671 2.14335 938.128 
457 1 35.7701 4.24715 -0.827848 966.57 
458 1 36.0044 7.35162 2.73332 972.109 
459 1 38.3822 4.66342 2.01118 976.008 
460 1 39.0152 7.48429 -0.372312 943.044 
461 2 38.6115 7.28693 2.58678 965.836 
462 2 38.3532 4.8357 -0.559141 946.943 
463 2 35.8099 7.61161 -0.597151 953.453 
464 2 35.4591 4.05285 2.59733 954.799 
465 1 40.9756 4.51301 -0.768306 968.04 
466 1 41.581 7.87066 3.0015 956.58 
467 1 44.5599 4.16322 2.13705 979.27 
468 1 44.8247 7.63694 -0.385078 976.621 
469 2 44.129 7.12526 2.68371 959.225 
470 2 45.1461 4.54544 -0.2338 974.952 
471 2 42.1357 7.26219 -0.61622 968.394 
472 2 41.4492 4.26035 2.46856 967.99 
473 1 47.5053 5.01421 -1.006 990.099 
474 1 47.7944 7.86332 3.10177 983.164 
475 1 50.4719 4.20783 2.97346 982.255 
476 1 49.9841 7.99645 -0.0447682 964.53 
477 2 50.6732 7.79984 2.71006 970.049 
478 2 50.39 4.12334 -0.805754 980.207 
479 2 47.653 7.45539 -0.355199 968.615 
480 2 47.3672 4.60809 3.57471 979.524 
481 1 53.1296 4.01918 -0.75023 984.316 
482 1 53.2409 7.90383 2.46079 980.48 
483 1 55.3554 4.94313 1.69656 999.056 
484 1 55.2413 7.78223 -0.911495 994.485 
485 2 55.9716 7.99815 2.12143 985.391 
486 2 55.8718 4.50768 -0.879924 977.53 
487 2 52.8419 7.98104 -0.744254 978.122 
488 2 52.7681 4.20984 2.26861 985.486 
489 1 58.689 4.33194 -0.720118 998.381 
490 1 59.1892 7.84788 2.08149 989.796 
491 1 62.1974 4.70148 2.29318 984.737 
492 1 61.9772 7.65616 -0.869702 996.204 
493 2 62.1231 7.61268 2.14709 1005.5 
494 2 61.7627 4.57588 -0.705763 975.925 
495 2 58.9903 7.76063 -0.780385 983.564 
496 2 58.6072 4.39293 2.11868 974.163 
497 1 65.1591 4.38635 -1.106 1018.44 
498 1 65.3232 7.20634 1.77655 999.935 
499 1 68.3441 4.09997 2.28109 997.15 
500 1 67.82 7.8297 -0.818001 1018.42 
501 2 67.8413 7.29486 1.86322 1002.63 
502 2 68.0902 4.83835 -0.711626 992.133 
503 2 64.6848 7.13685 -0.778682 1012.34 
504 2 64.7997 4.07881 2.22551 1007.81 
505 1 70.8163 4.57025 -0.615521 993.268 
506 1 70.7496 8.15973 1.70665 982.687 
507 1 73.7788 4.29015 2.0609 1011.07 
508 1 73.3078 7.78592 -0.66363 991.528 
509 2 73.4355 7.24819 2.14769 982.426 
510 2 73.6594 5.11969 -0.306304 994.093 
511 2 70.5126 7.65342 -1.42644 985.687 
512 2 70.7536 4.23334 2.28276 1000.36 
513 1 76.6016 4.87236 -0.814014 1020.26 
514 1 76.1154 7.66119 1.96562 992.201 
515 1 79.1977 5.00611 2.6398 1021.16 
516 1 79.7 7.3515 -1.03746 1008.62 
517 2 79.1009 7.68795 1.59474 1000.41 
518 2 79.4974 4.73299 -0.420549 1010.17 
519 2 76.1226 7.57696 -0.737949 1001.6 
520 2 76.5726 4.30321 2.15342 1009.38 
521 1 82.3587 4.4535 -0.712596 996.629 
522 1 81.7333 7.64116 2.09681 1017.62 
523 1 84.8612 4.67475 3.08121 1021.97 
524 1 85.269 7.89334 -0.843744 1028.68 
525 2 84.6513 7.13956 1.90197 1047.26 
526 2 84.9366 4.74133 -1.30138 1031.87 
527 2 82.5912 7.83515 -0.754813 1028.82 
528 2 81.5653 4.82373 2.85673 999.654 
529 1 87.3172 5.01178 -0.557465 1025.13 
530 1 88.2952 7.82843 1.72714 1034.99 
531 1 91.0039 5.03088 1.81663 1037.55 
532 1 90.8525 8.48351 -0.767708 1019.92 
533 2 91.1739 7.89355 2.32907 1030.41 
534 2 90.894 5.09783 -0.908745 1015.48 
535 2 88.1857 8.21281 -0.785132 1014.15 
536 2 88.156 5.25018 1.96906 1008.5 
537 1 93.7349 5.3727 -0.78772 1023.66 
538 1 93.7905 8.16933 2.84959 1036.05 
539 1 97.0819 4.68188 1.9322 1032.59 
540 1 95.9391 8.48545 -0.152217 1021.81 
541 2 96.6884 8.5961 2.40071 1036.79 
542 2 96.318 4.8853 -1.48388 1030.91 
543 2 93.494 7.97453 -1.0468 1037.3 
544 2 94.5168 5.61985 2.31752 1013.25 
545 1 99.1589 5.20702 -1.33361 1045.9 
546 1 100.264 7.36082 2.6356 1050.27 
547 1 102.796 5.00684 2.89924 1047.23 
548 1 102.58 7.93508 -0.0164986 1047.5 
549 2 102.726 7.92066 2.56045 1042.27 
550 2 102.612 5.08663 -0.281864 1034.45 
551 2 99.9234 7.75303 -0.49897 1035.68 
552 2 99.5251 4.94266 2.46529 1026.62 
553 1 105.289 4.81979 -0.443255 1056.96 
554 1 105.331 8.41168 2.63005 1055.09 
555 1 108.048 3.9081 2.55422 1052.46 
556 1 107.468 7.81697 -0.267523 1074.72 
557 2 108.09 8.71124 2.35113 1038.42 
558 2 108.332 5.03994 -0.250389 1056.61 
559 2 104.96 8.33536 -0.11826 1048.57 
560 2 105.503 4.99421 2.32337 1046.95 
561 1 111.303 5.43997 0.0976308 1038.12 
562 1 111.657 7.88086 2.8636 1067.06 
563 1 114.306 5.41365 2.44436 1051.85 
564 1 114.156 8.28088 -0.382974 1068.07 
565 2 114.103 8.33989 2.72908 1076.23 
566 2 114.488 5.45014 -0.217803 1033.39 
567 2 111.382 8.26259 -0.614832 1056.68 
568 2 111.53 5.42222 2.68793 1045.1 
569 1 117.033 5.54055 -0.323712 1041.41 
570 1 117.07 8.48376 2.70918 1073.82 
571 1 119.848 4.72904 3.07797 1062.65 
572 1 120.31 8.09039 -0.315814 1062.1 
573 2 120.459 8.35445 2.75459 1089.86 
574 2 120.456 5.49847 -0.78549 1053.42 
575 2 116.794 8.21158 -0.0817557 1078.07 
576 2 117.376 5.61426 2.66572 1053.62 
577 1 122.866 4.68959 -0.157942 1066.27 
578 1 123.025 7.70205 3.03567 1051.14 
579 1 126.279 5.05544 2.88462 1057.34 
580 1 125.707 7.6599 0.0599186 1073.85 
581 2 126.559 7.83326 2.62177 1098.62 
582 2 125.7 4.9061 0.116827 1048.84 
583 2 122.595 7.72898 0.11887 1079.39 
584 2 122.993 5.19177 3.28081 1062.57 
585 1 129.248 5.0524 0.0230184 1067.63 
586 1 129.007 8.22597 2.48442 1093.48 
587 1 131.511 4.98013 2.96102 1091.65 
588 1 131.926 8.50241 -0.270962 1071.83 
589 2 132.013 8.44654 2.4003 1093.15 
590 2 131.927 5.15969 -0.368948 1079.4 
591 2 129.199 7.60292 -0.391272 1069.82 
592 2 128.989 4.98858 2.44577 1091.41 
593 1 134.459 5.56835 -0.358824 1100.23 
594 1 134.668 7.7302 2.56741 1097.8 
595 1 137.99 4.7245 3.11621 1095.95 
596 1 137.234 8.79837 0.391881 1090.41 
597 2 137.332 7.95367 2.88886 1099.96 
598 2 137.698 5.09946 -0.0624845 1080.85 
599 2 134.811 8.0102 -0.239744 1070.31 
600 2 134.319 4.80402 3.36337 1087.87 
601 1 140.712 5.05614 -0.650822 1086.9 
602 1 140.607 8.27104 2.88939 1098.38 
603 1 143.708 5.0445 2.05649 1122.28 
604 1 143.287 8.18536 -0.286468 1088.4 
605 2 143.986 7.61822 2.40796 1097.98 
606 2 143.32 5.47344 -0.623357 1091.26 
607 2 140.58 8.42917 -0.303265 1099.18 
608 2 140.591 4.76325 2.97812 1092.22 
609 1 146.268 5.17994 -0.635167 1084.11 
610 1 146.412 8.03991 2.83299 1118.17 
611 1 149.409 4.77152 2.65646 1106.54 
612 1 148.936 8.12721 -0.0691592 1092.99 
613 2 149.493 8.06175 2.98469 1130.29 
614 2 149.037 5.12093 -0.0819144 1096.67 
615 2 146.542 8.21676 -0.801781 1107.71 
616 2 146.259 4.58628 2.093 1094.06 
617 1 152.199 4.82991 -0.311602 1094 
618 1 152.089 7.90411 2.76209 1072.6 
619 1 154.85 4.80891 2.47149 1076.17 
620 1 155.375 7.23911 0.0138233 1084.24 
621 2 155.078 8.01401 2.77878 1062.95 
622 2 155.263 4.54215 0.0167074 1073.48 
623 2 152.446 8.05083 -0.243805 1109.14 
624 2 152.04 4.98284 2.4585 1093.16 
625 1 158.189 4.48028 -0.679553 1054.91 
626 1 157.957 7.61512 2.38616 1077.76 
627 1 161.167 4.49606 2.71516 1090.31 
628 1 160.683 7.90861 0.0361274 1054.84 
629 2 160.963 7.89886 2.95842 1058.42 
630 2 161.033 4.60874 -0.205479 1080.33 
631 2 158.021 8.06324 -0.532041 1098.35 
632 2 158.156 5.01774 2.81865 1057.15 
633 1 163.985 4.9696 -0.264588 1048.57 
634 1 164.26 7.77493 2.54859 1074.62 
635 1 166.999 4.53988 2.74013 1058.78 
636 1 166.78 7.89555 0.366299 1068.56 
637 2 167.033 8.14163 2.84207 1068.98 
638 2 166.567 5.0733 0.15881 1061.79 
639 2 164.441 7.82603 -0.0793591 1068.32 
640 2 163.833 4.779 2.63829 1067.03 
641 1 169.45 4.9628 -0.353999 1044.77 
642 1 170.261 8.11497 3.00513 1051.48 
643 1 172.492 4.0795 2.22164 1047.36 
644 1 172.883 7.81805 -0.247169 1066.14 
645 2 172.903 7.80583 2.5626 1037.23 
646 2 172.845 4.42396 -0.547241 1065.31 
647 2 169.893 7.57361 0.0472455 1061.62 
648 2 169.885 4.28914 2.31824 1061.32 
649 1 175.935 4.88154 -0.679398 1048.83 
650 1 175.566 7.22898 2.62338 1070.78 
651 1 179.049 4.17703 2.78598 1060.87 
652 1 178.729 8.21237 -0.636738 1028.83 
653 2 178.197 8.5068 3.17417 1036.65 
654 2 178.489 5.40498 0.166016 1053.91 
655 2 175.528 8.00866 -0.18197 1022.48 
656 2 175.507 4.85861 2.85882 1048.49 
657 1 181.358 4.56126 0.0399379 1056.08 
658 1 180.81 8.1979 2.33091 1065.29 
659 1 183.981 4.4356 2.72389 1019.74 
660 1 184.166 7.1582 -0.374859 1031.29 
661 2 184.394 7.10407 2.17808 1021.27 
662 2 184.246 4.45795 -0.600837 1043.65 
663 2 181.487 7.38263 0.0428163 1041.48 
664 2 181.485 3.92264 2.98782 1033.44 
665 1 186.97 4.44185 -0.476372 1043.12 
666 1 187.522 7.40095 2.36385 1005.07 
667 1 190.133 4.85133 2.4721 1045.29 
668 1 189.924 7.56134 -0.547781 1068.24 
669 2 190.058 7.35025 2.95379 1037.19 
670 2 189.885 4.2608 -0.107756 1039.33 
671 2 187.361 7.43501 -0.237831 1039.21 
672 2 186.857 4.52555 3.03539 1047.24 
673 1 192.388 4.43704 -0.736447 1034.34 
674 1 192.711 7.52854 2.72871 1030.9 
675 1 196.421 4.64947 2.56394 1022.45 
676 1 196.392 7.36703 -0.618956 1030.95 
677 2 196.019 7.43554 2.51686 1050.38 
678 2 196.418 4.44644 -0.22884 1044.1 
679 2 192.836 7.52398 -0.502618 1038.05 
680 2 193.182 4.35049 2.80989 1044.07 
681 1 198.879 4.63854 -0.215881 996.985 
682 1 198.615 7.77247 2.78623 1023.64 
683 1 202.161 5.26746 2.0716 1039.12 
684 1 201.978 7.77296 -0.11525 1015.04 
685 2 202.343 8.02296 2.64921 1028.27 
686 2 201.874 4.80393 -0.520443 1020.63 
687 2 199.135 7.7151 -0.596159 1014.77 
688 2 199.19 5.0334 2.3782 1034.56 
689 1 205.045 4.88026 -0.653816 1017.71 
690 1 204.822 7.66297 2.64492 1013.77 
691 1 207.834 4.73181 2.3392 1011.96 
692 1 207.629 7.99115 -0.228508 1005.66 
693 2 207.8 8.24389 2.74985 1005.67 
694 2 208.126 4.78303 -0.961967 1002.92 
695 2 205.05 7.611 -0.486014 1004.66 
696 2 205.131 4.68561 2.18143 1023.69 
697 1 210.813 4.68118 -0.175216 1006.81 
698 1 211.031 8.63803 2.5304 1005.6 
699 1 213.56 5.03799 2.58326 996.485 
700 1 213.463 8.36124 -0.632873 1009.99 
701 2 213.491 8.54075 2.12869 1014.29 
702 2 213.709 4.68784 -0.732462 1010.24 
703 2 210.8 7.87343 -0.443551 988.038 
704 2 210.886 5.25852 3.22941 1022.49 
705 1 216.381 4.83022 -0.179332 982.637 
706 1 216.431 7.90258 2.84476 1003.86 
707 1 219.474 4.75005 2.76955 985.345 
708 1 219.442 7.75866 -0.48149 1006.61 
709 2 219.299 7.93548 2.33781 992.098 
710 2 219.946 4.96236 -0.917562 998.056 
711 2 216.377 8.03985 -0.427578 997.3 
712 2 216.563 5.06573 2.32362 987.446 
713 1 222.598 5.17 -0.81089 985.32 
714 1 221.947 8.43882 2.28657 993.444 
715 1 224.85 4.94819 2.01348 959.099 
716 1 225.568 7.94075 -0.915034 983.948 
717 2 225.219 7.73844 2.41904 967.036 
718 2 224.978 4.46717 -0.705956 989.453 
719 2 222.542 8.12061 -0.418357 993.852 
720 2 221.897 4.80557 2.41339 1003.93 
721 1 227.737 4.26525 -0.777442 988.696 
722 1 227.594 6.93886 2.06895 984.037 
723 1 230.625 4.13457 2.22711 978.015 
724 1 231.065 7.4036 -0.709385 972.962 
725 2 231.802 6.84793 2.60194 976.196 
726 2 230.718 4.0983 -0.705833 963.907 
727 2 228.016 7.24475 -0.689029 989.201 
728 2 227.996 4.17754 1.99235 972.497 
729 1 233.854 4.10761 -0.831045 973.074 
730 1 234.421 7.24206 2.40257 947.284 