ITEM: TIMESTEP
500000
ITEM: NUMBER OF ATOMS
8400
ITEM: BOX BOUNDS pp pp pp
-5.9099547646241319e+00 2.8359995476463484e+02
-2.1446273254920634e+00 4.0174627325491812e+01
-1.7757301867509554e+00 1.6325730186751606e+01
ITEM: ATOMS id type x y z f_TolTpA 
1 1 -4.31229 -1.60733 -0.121831 911.971 
2 1 -4.39192 1.49543 2.56316 903.937 
3 1 -1.66567 -1.17589 2.85546 881.064 
4 1 -1.58987 1.77124 -0.410355 896.425 
5 2 -1.52735 1.88915 2.86244 902.376 
6 2 -1.09069 -0.975883 -0.35589 910.067 
7 2 -4.70755 1.36647 -0.376321 919.858 
8 2 -4.1382 -1.22134 2.11605 895.112 
9 1 1.60739 -0.937075 0.1165 917.327 
10 1 1.48096 1.66895 2.87027 911.17 
11 1 4.43183 -1.29337 3.7999 920.203 
12 1 4.31807 1.68444 -0.0347959 918.095 
13 2 4.25577 1.34137 2.75652 922.822 
14 2 4.6525 -1.59521 -0.648236 921.223 
15 2 1.71709 2.00668 0.0885067 904.777 
16 2 1.16668 -1.14813 2.82495 919.051 
17 1 7.26986 -1.29923 -0.124571 924.072 
18 1 7.14216 1.248 2.44001 948.877 
19 1 10.6383 -1.64002 2.58838 930.274 
20 1 9.90617 0.980639 -0.599963 936.209 
21 2 10.4682 1.37946 2.62498 935.266 
22 2 9.92894 -1.6613 -0.461504 929.624 
23 2 6.94239 1.28826 -0.158128 929.773 
24 2 6.99852 -1.23546 2.81256 908.16 
25 1 13.4946 -1.72494 -0.380237 935.811 
26 1 12.7256 1.16729 2.31449 932.717 
27 1 15.9197 -1.22867 2.08711 940.654 
28 1 16.2212 1.4476 -0.356244 982.181 
29 2 15.4675 1.98299 2.8898 934.302 
30 2 16.0494 -1.43054 -0.237225 964.014 
31 2 13.2565 0.928396 -0.394875 956.264 
32 2 13.0591 -1.38296 2.75673 950.621 
33 1 18.9166 -1.21203 -0.126502 981.364 
34 1 19.1133 1.71589 3.12511 956.837 
35 1 21.814 -1.03482 2.73625 953.303 
36 1 21.6262 1.92935 -0.292801 952.42 
37 2 21.7026 2.21479 2.71415 962.032 
38 2 21.797 -1.45945 0.208885 958.507 
39 2 18.9018 1.39066 -0.462775 958.373 
40 2 18.953 -0.871543 2.59563 976.377 
41 1 24.0769 -1.70421 0.034731 959.485 
42 1 24.965 2.22702 2.48565 943.953 
43 1 26.9666 -1.72936 2.53957 965.34 
44 1 27.6605 1.24051 -0.474505 970.361 
45 2 27.5304 1.39081 2.45812 960.414 
46 2 27.1898 -1.29157 -0.533912 953.323 
47 2 24.1078 1.68779 -0.551397 947.545 
48 2 24.2871 40.0417 2.84056 959.383 
49 1 30.2273 -2.00395 -0.157304 993.617 
50 1 30.2696 1.66593 2.48023 970.223 
51 1 32.6488 -1.67584 2.65869 968.431 
52 1 33.0159 1.39904 -0.31242 975.473 
53 2 32.9946 1.59626 2.83884 950.684 
54 2 33.0078 -1.89454 -0.386443 972.254 
55 2 30.4645 1.21408 -0.280053 984.535 
56 2 29.9803 -1.39838 2.58796 972.35 
57 1 35.8905 -1.41892 -0.423145 955.927 
58 1 35.5467 1.85127 2.00684 968.5 
59 1 38.3105 -1.23841 2.43127 945.863 
60 1 38.6809 1.78467 -0.705932 955.064 
61 2 39.223 1.64821 2.65372 962.56 
62 2 38.5513 -1.2273 -0.106966 963.58 
63 2 35.5126 1.45379 -0.876323 965.895 
64 2 35.6957 -1.69747 2.21695 964.639 
65 1 41.6889 -1.63282 -0.138135 976.879 
66 1 41.6872 1.90507 2.33312 959.198 
67 1 44.5319 -1.33726 2.30219 992.127 
68 1 44.0833 2.1906 -0.815741 964.011 
69 2 44.4067 1.66694 1.8101 979.782 
70 2 44.1183 -1.85652 -0.90797 980.398 
71 2 41.4857 1.90781 -0.929613 984.564 
72 2 41.5579 -1.57311 2.40351 961.014 
73 1 46.7114 -1.16866 -0.777529 967.659 
74 1 47.4324 1.67919 2.04009 977.275 
75 1 50.2042 -1.34408 1.99628 977.266 
76 1 49.8854 1.73662 -0.625455 985.731 
77 2 50.2547 1.38547 2.19888 975.537 
78 2 50.3003 -1.07169 -0.597075 969.44 
79 2 47.3603 1.52804 -0.576299 967.109 
80 2 47.3291 -1.29703 2.15661 982.83 
81 1 52.7911 -1.67318 -0.511983 999.949 
82 1 52.9249 1.70214 2.30512 982.022 
83 1 55.8718 -0.916233 3.14202 979.305 
84 1 55.8855 1.68021 -0.466084 971.262 
85 2 55.7895 1.81939 2.48067 982.408 
86 2 55.8445 -1.47346 -0.580551 1002.14 
87 2 52.8008 1.90091 -0.33478 992.603 
88 2 53.2125 -1.81444 2.00323 964.824 
89 1 58.8545 -1.69384 -0.7028 980.627 
90 1 59.404 1.84995 2.51124 1000.76 
91 1 61.9293 -1.26544 2.352 964.917 
92 1 61.501 1.64884 -1.11837 999.151 
93 2 61.9733 1.59937 2.02126 985.66 
94 2 61.3754 -1.70132 -0.493946 987.794 
95 2 58.8046 2.05096 -0.189056 998.736 
96 2 58.7502 -0.756148 2.38389 982.586 
97 1 64.3356 -1.43597 -0.593376 1000.98 
98 1 64.8915 1.72383 2.08715 986.314 
99 1 67.9607 -0.683487 2.68035 976.738 
100 1 67.4939 1.41707 -0.603645 977.531 
101 2 67.8014 1.71351 2.40816 1005.71 
102 2 67.8326 -0.899897 -0.429205 983.006 
103 2 64.404 2.17211 -0.645987 1000.28 
104 2 64.5901 -0.971211 2.07053 992.603 
105 1 70.3262 -0.821526 -0.579671 992.353 
106 1 70.3844 1.49967 2.41309 990.264 
107 1 73.4565 -1.82178 2.46463 1008.02 
108 1 73.0906 1.87007 -0.455381 990.035 
109 2 73.1168 1.77193 2.24912 999.55 
110 2 73.3923 -1.43216 0.0514741 1007.23 
111 2 70.0595 2.00378 -0.611208 955.648 
112 2 70.5551 -1.57959 2.78332 977.051 
113 1 75.9183 -1.13036 -0.715958 988.654 
114 1 76.1945 1.51611 2.16596 994.034 
115 1 79.5983 -0.959199 2.74013 998.28 
116 1 79.1114 1.46171 -0.444732 1017.46 
117 2 78.9788 1.40142 3.10905 1005.42 
118 2 79.3473 -0.850365 0.0643185 1006.85 
119 2 76.2012 1.48723 -0.844561 990.915 
120 2 76.1681 -0.997093 2.79803 1012.69 
121 1 82.1354 -1.30763 -0.429089 1017.26 
122 1 82.1095 2.16472 2.81888 1018.9 
123 1 84.6947 -1.01727 2.82714 1015.83 
124 1 85.0169 2.16774 -0.911384 1005.96 
125 2 85.2922 1.96599 1.85392 1009.45 
126 2 84.6548 -1.28051 -0.932906 1021.37 
127 2 82.0501 1.84474 -0.772923 1028.1 
128 2 82.2628 -0.559154 2.53508 1008.64 
129 1 88.2211 -0.743729 -0.814778 1002.98 
130 1 87.7846 2.19893 2.01899 1000.83 
131 1 90.7092 -1.01198 2.28599 1029.15 
132 1 91.2166 2.19617 -0.221516 1033.92 
133 2 90.7814 1.88503 2.33437 1020.91 
134 2 90.8186 -0.509298 -1.10677 993.671 
135 2 88.2192 2.27449 -1.11092 1011.43 
136 2 88.1582 -0.638413 1.44672 1030.97 
137 1 93.5813 -1.04862 -1.41781 1036.09 
138 1 93.6341 1.95293 2.6151 1009.46 
139 1 96.7919 -0.85755 2.414 1021.13 
140 1 96.6697 1.84006 -0.899581 1033.53 
141 2 96.4601 2.42007 2.34663 1032.86 
142 2 96.9355 -1.5684 -0.908094 1017.88 
143 2 94.1438 1.37052 -0.357407 1025.71 
144 2 93.8383 -1.19406 2.56092 1047.32 
145 1 99.7516 -1.07692 -0.789089 1009.66 
146 1 99.407 1.78369 2.25438 1016.87 
147 1 102.197 -1.35456 2.53838 1045.23 
148 1 102.752 1.15303 -0.340932 1024.16 
149 2 102.098 1.48105 2.23901 1047.32 
150 2 102.836 -1.32557 -0.729023 1043.7 
151 2 99.4157 1.31907 -0.420773 1043.94 
152 2 99.5926 -1.59609 2.44871 1044.08 
153 1 105.568 -1.59274 -0.752969 1028.82 
154 1 105.655 2.23934 2.60034 1053.53 
155 1 108.337 -1.15368 2.56888 1052.61 
156 1 107.922 1.3619 -1.64929 1045.38 
157 2 108.226 1.86972 2.89916 1051.28 
158 2 108.418 -1.11126 -1.13116 1043.63 
159 2 105.39 2.08947 -0.578792 1055.9 
160 2 105.955 -1.69339 2.19027 1042.73 
161 1 111.558 -0.368922 -0.536359 1055.21 
162 1 110.946 2.36774 2.19414 1063.05 
163 1 113.832 -1.22876 2.32866 1041.41 
164 1 114.242 2.18094 -0.930152 1046.59 
165 2 113.682 2.3981 2.17899 1055.81 
166 2 114.496 -0.897538 -0.798745 1061.89 
167 2 111.035 2.11597 -0.450325 1060.88 
168 2 110.962 -1.40506 2.5203 1049.55 
169 1 117.006 -1.22992 -0.547175 1062.69 
170 1 117.209 1.92072 2.70011 1044.97 
171 1 120.065 -0.992373 2.78281 1025.27 
172 1 119.763 1.91529 -0.603653 1034.55 
173 2 119.86 1.83107 3.18129 1030.14 
174 2 119.686 -1.66006 -0.0859269 1043.32 
175 2 117.1 1.62075 -0.223964 1062.09 
176 2 116.773 -1.16096 2.26914 1043.3 
177 1 123.328 -1.12394 -0.308088 1036.97 
178 1 122.952 1.36441 2.7749 1053.44 
179 1 126.131 -1.47685 2.4808 1057.69 
180 1 125.585 1.76555 -0.482183 1060.85 
181 2 125.942 1.87157 2.4879 1044.78 
182 2 125.953 -1.58696 -0.519541 1060.59 
183 2 122.629 1.72916 -0.302503 1067.93 
184 2 123.091 -0.993105 2.38276 1039.87 
185 1 128.447 -1.63122 -0.206022 1038 
186 1 128.664 1.82516 2.32532 1091.41 
187 1 132.212 -1.06871 2.0814 1068.55 
188 1 131.385 1.98228 -0.335392 1091.73 
189 2 131.751 1.55379 2.27875 1064.15 
190 2 131.48 -1.55804 -0.670994 1054.54 
191 2 128.557 2.27873 -0.673404 1075.01 
192 2 128.964 -0.897106 2.80609 1084.15 
193 1 134.151 -1.4841 -1.20736 1091.79 
194 1 134.638 1.77083 2.44385 1088.2 
195 1 137.697 -1.83751 1.50182 1092.71 
196 1 136.693 1.95536 -0.6977 1086.59 
197 2 137.195 2.29681 1.86591 1080.13 
198 2 137.055 -0.506223 -1.0693 1080.48 
199 2 134 1.97203 -0.961832 1099.26 
200 2 135.157 -1.35316 2.49842 1084.02 
201 1 140.741 -0.785754 -0.675204 1070.51 
202 1 140.544 2.12145 1.82548 1079.55 
203 1 143.459 -1.13953 2.38831 1080.21 
204 1 143.177 2.10074 -0.915551 1082.38 
205 2 143.265 1.979 2.18672 1073.71 
206 2 143.494 -1.46091 -0.266495 1114.51 
207 2 140.533 1.83072 -0.974345 1075.85 
208 2 140.299 -1.27252 2.14588 1074.59 
209 1 146.432 -1.09505 -0.946716 1095.68 
210 1 146.268 1.94295 2.16772 1082.82 
211 1 149.208 -1.26792 2.31968 1065 
212 1 149.028 2.19814 -0.772252 1057.48 
213 2 149.525 1.78652 2.47979 1064.18 
214 2 149.368 -1.73175 -0.689237 1075.73 
215 2 146.344 1.90111 -1.20532 1073.65 
216 2 146.278 -0.941546 2.10639 1076.08 
217 1 151.797 -0.918803 -0.961418 1080.69 
218 1 152.259 1.27877 2.46073 1093.7 
219 1 154.957 -0.952666 2.11528 1072.21 
220 1 155.37 1.95989 -1.16134 1077.35 
221 2 155.122 1.6225 2.01206 1092.64 
222 2 155.395 -1.3982 -0.495307 1077.92 
223 2 151.881 1.84844 -0.940171 1043.55 
224 2 152.462 -1.07887 2.12343 1083.09 
225 1 158.075 -1.30929 -0.704025 1048.05 
226 1 158.319 1.43701 1.77595 1069.73 
227 1 161.019 -1.07636 2.30403 1048.77 
228 1 161.502 1.8812 -1.22488 1063.15 
229 2 161.664 1.87012 2.14479 1047.45 
230 2 160.93 -1.32343 -1.22487 1034.22 
231 2 157.931 1.51665 -1.33728 1067.22 
232 2 158.199 -1.02713 2.37825 1070.28 
233 1 164.468 -1.47737 -1.42617 1049.6 
234 1 164.175 1.54612 2.03432 1037.69 
235 1 167.17 -1.61128 2.48657 1030.47 
236 1 166.881 1.49487 -0.786163 1049.75 
237 2 167.118 1.2037 1.90176 1053.94 
238 2 167.166 -1.6178 -1.02517 1034.27 
239 2 164.259 1.82997 -1.28142 1041.24 
240 2 164.401 -1.2775 1.91093 1058.02 
241 1 169.988 -1.34134 -1.13107 1039.2 
242 1 170.167 1.31291 2.09453 1034.08 
243 1 172.553 -1.26102 2.25232 1033.85 
244 1 172.638 1.59774 -0.729131 1053.23 
245 2 172.852 1.52291 2.55372 1039.87 
246 2 172.954 -1.47611 -1.0004 1038.73 
247 2 169.979 1.44949 -1.33078 1043.86 
248 2 170.098 -1.53078 1.97512 1040.79 
249 1 175.562 -1.68295 -0.247788 1043.24 
250 1 175.239 1.70079 2.49391 1021.72 
251 1 178.387 -1.43007 2.27884 1043.86 
252 1 178.532 1.62166 -0.317568 1029.57 
253 2 178.808 1.19333 2.19276 1031.59 
254 2 178.04 -1.18086 -0.878804 1003.1 
255 2 175.799 1.37514 -0.147912 1026.55 
256 2 175.357 -1.58294 2.56877 1025.45 
257 1 181.182 -1.15094 -0.644594 1043.61 
258 1 181.516 1.03091 2.41476 1039.97 
259 1 184.415 -1.78973 2.36393 1018.17 
260 1 183.978 1.33365 -0.902162 1036.61 
261 2 184.115 1.83502 2.42719 1065.28 
262 2 184.177 -1.6021 -0.252128 1038.74 
263 2 180.881 1.21322 -1.29087 1025.99 
264 2 181.369 -2.00028 2.53977 1036.65 
265 1 186.843 -1.10541 -0.312731 1026.38 
266 1 187.035 1.64781 2.06606 1037.79 
267 1 190.141 -1.17284 2.14362 1029.47 
268 1 190.782 1.45629 -0.396089 1007.72 
269 2 189.994 1.50677 2.34908 1022.95 
270 2 190.465 -1.41645 -0.474298 1018.08 
271 2 186.922 1.70246 -0.60209 1028.71 
272 2 187.137 -1.46998 2.80885 1052.9 
273 1 193.161 -1.79566 -0.569949 1015.38 
274 1 192.848 1.1149 2.73431 1019.96 
275 1 196.126 -1.58772 2.39583 990.834 
276 1 195.727 1.44206 -0.558983 1008.12 
277 2 196.05 1.0993 2.00161 1010.09 
278 2 195.879 -1.6511 -0.307665 1016.54 
279 2 193.415 1.45723 -0.0735188 1023.09 
280 2 193.018 -1.45107 2.85764 1013.54 
281 1 198.556 -1.13442 -0.353335 1011.57 
282 1 198.597 1.29496 2.35284 1016.95 
283 1 201.669 -1.81781 1.8218 1020.12 
284 1 201.572 0.891099 -0.316211 1013.92 
285 2 201.905 1.03643 2.44145 1014.12 
286 2 201.867 -1.73134 -1.16315 1018.09 
287 2 199.08 1.53532 -0.341392 1022.53 
288 2 198.759 -1.38162 2.18796 993.765 
289 1 204.228 -2.08619 -1.16236 997.658 
290 1 204.423 1.44424 2.29992 988.937 
291 1 207.218 -1.51422 2.42669 1029.8 
292 1 206.855 1.2158 -0.702511 1000.39 
293 2 207.427 0.995675 2.57942 1012.84 
294 2 207.601 -1.70576 -0.870213 1018.97 
295 2 204.456 1.17828 -0.512977 996.999 
296 2 204.064 -2.10597 2.23432 1010.67 
297 1 210.42 -1.5446 -0.673669 1012.83 
298 1 210.135 1.64581 2.43612 1015.29 
299 1 213.37 -1.68837 2.4859 1010.39 
300 1 213.012 1.39042 -0.406765 1003.16 
301 2 213.583 1.76054 2.31904 991.008 
302 2 213.316 -1.2263 -0.820568 1018.66 
303 2 210.561 1.56609 -0.498678 1028.63 
304 2 210.564 -1.88261 2.12743 1029.35 
305 1 216.153 -1.38757 -0.481838 1009.28 
306 1 216.271 1.93029 2.28712 979.558 
307 1 219.298 -1.63076 2.44324 1005.33 
308 1 218.522 1.97352 -0.993943 981.672 
309 2 218.701 2.15473 2.8593 998.303 
310 2 219.026 -1.76272 -0.422991 1016.76 
311 2 216.158 1.24605 -0.0743187 1022.4 
312 2 215.859 40.1392 2.67967 997.061 
313 1 221.612 -1.58402 -0.616039 996.439 
314 1 221.607 1.42908 2.46217 1011.62 
315 1 225.612 -1.66791 2.6444 992.213 
316 1 224.789 1.13508 -0.210147 961.308 
317 2 225.024 1.4083 2.40671 974.041 
318 2 225.281 -1.50752 -0.476633 992.115 
319 2 221.878 1.70871 -0.537593 979.62 
320 2 221.733 -1.14998 2.3515 1010.79 
321 1 228.579 -1.2741 -0.274188 965.855 
322 1 227.976 1.69227 2.29899 995.996 
323 1 231.211 -1.71214 2.3447 1010.59 
324 1 231.009 1.73201 -0.586999 980.555 
325 2 230.865 1.61044 2.78872 1003.93 
326 2 231.074 -1.17642 -0.519807 980.861 
327 2 227.846 1.42295 -0.296906 984.165 
328 2 228.284 -1.55754 2.41421 970.011 
329 1 234.028 -1.60917 -0.27074 982.743 
330 1 233.939 1.06922 2.81793 996.87 
331 1 236.876 -1.50883 2.06367 1006.03 
332 1 236.61 1.85873 -0.475483 994.196 
333 2 236.6 1.35727 2.35047 996.841 
334 2 236.794 -1.08083 -0.436612 956.512 
335 2 233.679 1.16199 0.0430783 971.021 
336 2 234.082 -1.76934 2.7788 976.284 
337 1 239.789 -0.91207 -0.215358 964.869 
338 1 239.276 1.78789 3.30915 993.138 
339 1 242.606 -1.66869 3.34779 965.484 
340 1 242.231 1.3059 -0.126361 972.286 
341 2 242.54 1.81477 3.01124 977.636 
342 2 242.222 -1.17384 -1.24662 964.619 
343 2 239.619 1.70311 -0.133805 1005.33 
344 2 239.553 -1.65055 2.29819 987.249 
345 1 245.681 -1.28947 0.205355 977.058 
346 1 245.263 1.65846 2.7186 967.208 
347 1 247.955 -1.64083 3.58834 989.21 
348 1 248.195 1.86974 -0.477013 975.984 
349 2 247.692 1.66025 2.91378 963.579 
350 2 248.478 -1.24382 -0.191465 946.4 
351 2 245.181 0.956046 -0.18183 967.297 
352 2 245.257 -1.20723 2.93003 982.055 
353 1 251.029 -1.42223 -1.01716 955.884 
354 1 250.182 1.59682 3.22907 960.221 
355 1 253.502 -0.673103 2.55222 963.646 
356 1 254.073 1.71776 -0.352905 960.873 
357 2 253.631 1.96419 2.66677 965.828 
358 2 254.373 -0.775131 -0.383906 971.187 
359 2 250.755 1.50097 -0.518779 954.649 
360 2 251.057 -1.09282 3.78933 975.013 
361 1 257.09 -1.65185 0.162897 944.185 
362 1 256.662 1.82412 2.69766 968.146 
363 1 259.677 -0.70794 3.02635 963.129 
364 1 259.72 1.75117 -0.201866 955.826 
365 2 259.695 1.84706 3.1829 960.246 
366 2 259.71 -1.54471 0.175691 960.615 
367 2 256.717 1.59067 -0.118476 969.824 
368 2 256.656 -0.680535 3.08171 964.437 
369 1 262.295 -1.39726 -0.182049 942.792 
370 1 262.326 1.54386 3.15485 923.657 
371 1 265.121 -1.05928 2.70667 938.935 
372 1 264.987 1.8571 -0.573096 935.582 
373 2 265.112 1.23834 3.1562 950.332 
374 2 264.69 -1.42168 -0.734926 933.898 
375 2 262.348 1.40028 -0.364531 940.649 
376 2 262.13 -0.944267 3.34543 946.322 
377 1 267.508 -1.1684 -0.434359 947.184 
378 1 267.892 1.83697 2.85593 946.743 
379 1 270.699 -1.04466 2.83808 933.071 
380 1 270.849 1.37596 0.00894739 922.9 
381 2 270.542 1.59955 2.48864 943.132 
382 2 271.046 -1.48176 -0.774563 939.434 
383 2 267.971 1.63103 -0.121277 947.29 
384 2 267.904 -1.19513 2.44177 928.753 
385 1 273.788 -1.78799 -0.0871193 938.754 
386 1 273.576 1.19128 2.56853 916.232 
387 1 276.29 -1.54147 3.00055 927.778 
388 1 276.307 0.937954 -0.439147 937.056 
389 2 276.757 1.58408 2.70598 934.929 
390 2 276.435 -1.32981 0.282699 929.524 
391 2 273.713 1.23823 -0.191579 937.958 
392 2 273.74 -1.3068 2.72415 955.226 
393 1 278.97 -1.36619 -0.256514 934.321 
394 1 279.724 1.38719 2.83323 927.374 
395 1 282.146 -1.72414 1.91638 903.27 
396 1 282.257 1.12472 -0.2324 921.846 
397 2 282.519 1.80221 2.52193 918.13 
398 2 282.523 -1.46187 -0.568428 914.052 
399 2 279.344 1.21028 -0.057569 926.018 
400 2 279.242 -1.38684 3.08717 929.836 
401 1 -4.83014 4.53453 -0.23013 907.681 
402 1 -4.3467 7.33575 2.45544 909.775 
403 1 -1.30128 4.42098 2.48373 906.767 
404 1 -1.50714 7.65705 -0.487036 902.667 
405 2 -1.91213 8.08193 2.64936 909.047 
406 2 -1.26146 4.85416 -0.368783 898.683 
407 2 -4.43546 7.34551 -0.398958 907.053 
408 2 -4.16628 4.68139 2.67759 908.082 
409 1 1.49767 4.81028 -0.529335 906.014 
410 1 1.43099 7.59721 3.06623 910.465 
411 1 4.10433 4.29812 2.53082 907.434 
412 1 4.301 7.25481 0.0888679 936.171 
413 2 4.46174 7.59799 2.85631 938.746 
414 2 4.07093 4.60461 0.118101 947.673 
415 2 1.70133 7.38316 -0.468727 931.741 
416 2 1.53637 4.53861 3.35896 906.557 
417 1 7.29959 4.39036 -0.0616099 929.79 
418 1 7.01739 7.58347 2.4573 917.499 
419 1 10.326 4.59213 2.63517 925.892 
420 1 10.4068 7.34089 -0.393307 921.935 
421 2 10.3627 8.11932 2.31278 921.917 
422 2 10.4291 4.4132 -0.43239 933.404 
423 2 7.14011 7.05624 -0.239184 921.234 
424 2 7.26693 4.35697 2.67512 934.189 
425 1 13.2731 4.61745 0.0444628 938.513 
426 1 13.0438 8.61252 2.58677 944.839 
427 1 15.6453 4.79176 2.92708 945.829 
428 1 15.8136 7.76484 -0.619397 957.363 
429 2 15.632 7.83918 2.80445 925.157 
430 2 15.7003 4.63654 -0.624241 946.675 
431 2 13.0991 8.02564 -0.146612 915.098 
432 2 12.7875 4.94861 2.58294 941.4 
433 1 18.7446 4.07177 -0.245644 959.117 
434 1 18.4043 7.55696 2.98695 952.775 
435 1 21.9744 4.81108 2.54209 978.486 
436 1 21.3548 7.54813 -0.428221 954.365 
437 2 21.8723 7.5227 3.13791 948.443 
438 2 21.3673 4.56856 -0.435818 975.128 
439 2 18.605 7.84281 -0.299242 961.704 
440 2 18.6515 4.43703 2.54762 960.525 
441 1 24.1427 4.51076 -0.817699 956.474 
442 1 24.5506 7.3705 2.37959 965.803 
443 1 27.4194 5.167 2.90892 972.363 
444 1 27.3708 7.44358 -0.22312 977.709 
445 2 27.0887 7.87258 2.21084 965.584 
446 2 27.195 4.89838 -0.687056 965.741 
447 2 24.7787 7.5526 -0.393406 971.61 
448 2 24.6372 4.84598 2.77033 971.355 
449 1 29.8132 4.79749 -0.122796 971.591 
450 1 29.9234 7.42858 2.73627 976.545 
451 1 33.2372 4.96118 2.2979 957.94 
452 1 33.1896 7.98161 -0.636375 979.003 
453 2 33.0267 7.77228 3.03107 957.223 
454 2 33.4915 4.61172 -0.177777 976.818 
455 2 30.1267 7.5818 -0.195913 957.598 
456 2 30.2573 5.05037 2.27229 961.478 
457 1 36.1977 5.09245 -0.72696 966.866 
458 1 35.5861 7.75895 2.77017 965.402 
459 1 39.0148 4.99224 2.53878 954.457 
460 1 38.714 7.77053 -0.411447 980.427 
461 2 38.6148 7.76743 2.44928 972.829 
462 2 38.7712 5.19403 -0.555887 955.296 
463 2 35.7577 7.69306 0.0276843 937.568 
464 2 36.1257 4.68876 2.53877 955.955 
465 1 41.5091 5.07063 -0.941066 966.184 
466 1 41.6315 7.67773 2.08843 980.109 
467 1 44.3173 4.6662 1.95623 976.865 
468 1 44.648 8.13355 -0.506138 993.968 
469 2 44.1019 8.37817 2.34726 991.043 
470 2 44.7318 5.59351 -0.971057 977.291 
471 2 41.6395 7.75259 -0.912093 979.138 
472 2 41.5878 4.99312 2.30451 993.899 
473 1 47.3723 5.06001 -0.799595 967.421 
474 1 46.9102 7.95608 2.18752 972.802 
475 1 50.1642 4.93705 2.52739 968.982 
476 1 50.2854 7.65069 -0.631047 980.772 
477 2 50.3512 7.63139 2.21636 944.949 
478 2 50.1922 5.05977 -0.358692 967.803 
479 2 47.2613 8.06473 -0.739573 970.322 
480 2 46.8278 5.02601 2.05973 989.562 
481 1 53.1303 4.59727 -0.449509 989.085 
482 1 53.047 7.78463 2.65541 985.569 
483 1 55.8993 4.4085 2.66973 970.469 
484 1 55.6561 7.51048 -0.463706 990.824 
485 2 56.0191 7.91007 2.19175 974.358 
486 2 55.8527 4.45754 -0.343302 982.695 
487 2 53.1879 7.8475 -0.628806 984.298 
488 2 53.0573 4.73039 2.37139 964.778 
489 1 59.0101 4.83273 0.0633952 982.955 
490 1 58.8665 8.09534 2.35066 974.316 
491 1 61.7183 4.99873 2.06436 994.831 
492 1 61.9289 8.00381 -0.779363 972.265 
493 2 61.982 8.05393 2.03613 1007.67 
494 2 61.5885 4.78022 -0.587167 993.91 
495 2 58.9278 7.70805 -0.0494759 1017.87 
496 2 59.068 4.57488 2.97339 989.271 
497 1 64.8253 4.95809 -0.863362 999.614 
498 1 64.2233 7.76765 2.83947 970.888 
499 1 67.8122 5.42185 1.91172 980.634 
500 1 66.6481 7.84376 -0.261192 1025.44 
501 2 67.6392 7.97507 2.27379 1005.47 
502 2 67.7389 5.04569 -0.968019 982.54 
503 2 64.4658 7.5432 -0.750342 992.106 
504 2 64.951 5.35803 2.0973 978.005 
505 1 70.6465 4.95437 -0.349845 999.408 
506 1 70.8066 8.11457 2.29234 989.261 
507 1 73.2138 4.52065 2.79542 994.3 
508 1 73.5183 7.80732 -0.62046 997.747 
509 2 73.4007 7.45317 2.92981 1002.73 
510 2 73.7334 5.08615 -1.08918 996.665 
511 2 70.7163 7.92249 -0.392193 1011.31 
512 2 70.7227 4.94283 2.4548 1007.33 
513 1 76.3564 4.90903 -0.657571 1008.5 
514 1 76.3021 7.76261 2.29204 1022.21 
515 1 79.4077 5.36688 2.31333 998.62 
516 1 79.5543 7.4821 -0.877819 1013.65 
517 2 79.312 7.84191 2.19659 1029.93 
518 2 78.9018 5.02614 -0.278446 1004.96 
519 2 76.4145 7.8883 -0.483541 1003.95 
520 2 76.668 4.63402 2.40787 1020.66 
521 1 81.785 4.71733 -0.429868 1023.53 
522 1 82.1712 7.86845 2.29358 1031.76 
523 1 85.3489 5.06595 2.61139 1018.34 
524 1 85.3989 7.99696 -0.00566674 1033.85 
525 2 85.2976 8.33775 2.88759 1037.78 
526 2 84.8755 5.41057 -0.684759 1006.44 
527 2 82.2135 7.5617 -0.566404 1006.02 
528 2 82.3679 5.15412 2.70229 1012.98 
529 1 87.7504 5.00843 -0.615952 1032.02 
530 1 88.3058 8.53804 3.27497 1028.98 
531 1 90.6048 4.7088 2.84854 1028.93 
532 1 91.2648 7.6126 -0.307054 1014.04 
533 2 90.8627 8.38708 2.53814 1019.95 
534 2 91.0105 4.84184 -0.335157 1010.18 
535 2 88.2279 7.78589 -0.254423 1000.49 
536 2 87.8094 5.15923 2.79092 1001.27 
537 1 93.8892 4.81522 -0.418187 1009.1 
538 1 93.6238 8.10228 2.7732 1022.68 
539 1 96.391 4.88407 2.76881 1034.53 
540 1 96.773 7.4079 -0.0208884 1028.35 
541 2 96.5413 7.72323 2.85345 1029.3 
542 2 96.8994 4.49849 -0.72471 1031.98 
543 2 94.1512 7.4744 -0.35193 1026.07 
544 2 93.0811 4.95523 2.58144 1027.47 
545 1 99.7956 4.4002 -0.644437 1011.98 
546 1 99.0852 8.28524 2.47385 1045.45 
547 1 102.174 4.67869 2.26546 1029.1 
548 1 102.47 7.59304 -0.611688 1044.22 
549 2 102.103 7.59979 1.86547 1037.68 
550 2 102.681 4.98392 -0.720414 1002.14 
551 2 99.4496 7.77742 -0.184517 1031.23 
552 2 99.5244 4.48032 2.38264 1009.67 
553 1 105.327 5.14177 -0.5829 1054.11 
554 1 104.792 7.88997 2.41567 1024.99 
555 1 108.256 4.90039 2.53971 1054.74 
556 1 107.909 8.00841 -0.963014 1030.21 
557 2 108.048 8.08108 2.40857 1038.12 
558 2 108.033 4.9243 -0.74983 1024.07 
559 2 105.199 8.09453 -0.913004 1030.62 
560 2 105.418 5.23149 2.37472 1036.16 
561 1 110.594 5.08071 -0.264373 1046.32 
562 1 111.202 7.70935 3.04879 1046.73 
563 1 113.871 4.96589 2.33333 1046.13 
564 1 113.906 7.62483 -1.03845 1064.06 
565 2 113.848 7.45222 1.8443 1056.19 
566 2 113.594 4.97383 -0.59274 1053.4 
567 2 110.694 8.14296 -1.34214 1042.64 
568 2 110.964 5.11529 2.52418 1047.5 
569 1 117.093 4.6234 -0.964612 1051.69 
570 1 116.787 7.2595 2.33445 1056.27 
571 1 120.348 4.87861 2.76424 1043.84 
572 1 120.519 7.39079 -0.946873 1063.04 
573 2 120.49 7.59219 2.75111 1051.36 
574 2 119.397 4.26424 -1.54222 1024.07 
575 2 117.274 7.50274 -0.141087 1053.84 
576 2 117.431 4.82676 2.97489 1049.04 
577 1 123.682 4.92012 -0.915654 1047.27 
578 1 123.374 7.90289 2.48737 1064.71 
579 1 125.338 4.70087 2.06433 1041.43 
580 1 126.039 7.98971 -0.387638 1042.3 
581 2 126.011 7.99619 2.47057 1067.27 
582 2 125.74 4.93866 -0.546972 1072.36 
583 2 122.921 8.00001 -0.606422 1054.55 
584 2 123.006 4.25658 2.63349 1048.56 
585 1 128.591 4.8811 -0.785556 1068.44 
586 1 128.71 7.76492 2.73239 1067.76 
587 1 131.63 5.31521 2.07677 1072.17 
588 1 131.138 7.82909 -0.888074 1094.99 
589 2 132.108 7.74155 2.04486 1069.2 
590 2 131.266 5.02924 -0.994486 1086.58 
591 2 128.626 7.72528 0.0674702 1091.43 
592 2 129.018 5.28977 2.56179 1057.99 
593 1 135.002 4.77965 -0.60616 1100.91 
594 1 134.837 7.88073 2.57371 1071.76 
595 1 137.469 5.12943 2.21235 1078.02 
596 1 137.798 8.15359 -0.849658 1096.71 
597 2 137.707 8.07628 2.40299 1082.55 
598 2 137.451 4.84545 -0.736509 1067.21 
599 2 135.144 7.75809 -0.321625 1070.8 
600 2 134.178 4.68145 2.37082 1052.62 
601 1 140.194 4.73418 -1.43694 1080.9 
602 1 140.337 8.00402 2.01931 1098.2 
603 1 143.067 5.06138 2.14218 1083.97 
604 1 143.414 8.1089 -1.03861 1119.9 
605 2 142.88 7.87332 1.80476 1095.89 
606 2 143.525 4.65966 -1.23643 1102.21 
607 2 140.574 7.44028 -1.01134 1104.35 
608 2 140.365 4.92736 2.5583 1067.89 
609 1 145.965 5.24441 -1.02015 1102.82 
610 1 145.923 8.02469 1.9577 1088.35 
611 1 149.235 4.69593 2.64955 1078.53 
612 1 148.874 7.30912 -0.984235 1086.16 
613 2 148.918 8.32707 2.51597 1091.08 
614 2 148.854 4.77873 -0.223849 1098.72 
615 2 146.357 8.07139 -0.694683 1109.81 
616 2 145.982 4.86447 2.31321 1101.83 
617 1 152.015 4.98496 -0.723156 1065.31 
618 1 151.868 8.42886 2.29222 1078.6 
619 1 155.225 4.29197 2.07661 1066.42 
620 1 154.91 8.29078 -0.363055 1048.64 
621 2 154.811 8.10667 2.56038 1056.55 
622 2 155.335 4.51077 -0.763357 1089.53 
623 2 152.408 8.30498 -0.792602 1104.2 
624 2 152.213 5.55929 2.60762 1083.67 
625 1 158.317 5.3865 -0.761951 1047.48 
626 1 157.859 7.7715 2.20475 1059.33 
627 1 160.831 4.60753 2.35063 1041.5 
628 1 161.581 7.22859 -0.709185 1090.01 
629 2 161.238 7.21069 2.13925 1038.13 
630 2 161.527 4.42698 -0.756887 1085.22 
631 2 158.613 7.71048 -0.551899 1057.4 
632 2 158.31 4.69968 1.99517 1050.42 
633 1 164.355 4.46904 -1.30043 1055.9 
634 1 164.07 8.01407 2.5397 1045.61 
635 1 167.403 4.78943 2.47964 1058.68 
636 1 166.718 7.35635 -0.822214 1024.46 
637 2 166.604 7.81003 2.129 1028.41 
638 2 167.011 4.67699 -1.16489 1060.25 
639 2 164.112 7.45392 -1.31213 1045.52 
640 2 164.853 4.59527 2.50739 1035.93 
641 1 169.859 4.33256 -0.915625 1040.5 
642 1 169.91 7.37319 2.16442 1029.79 
643 1 172.745 4.57552 1.99326 1046.04 
644 1 172.779 7.77786 -0.912866 1020.92 
645 2 173.115 7.56995 1.88814 1047.05 
646 2 172.764 4.31228 -0.612942 1038.94 
647 2 169.263 7.26807 -0.534616 1046.41 
648 2 170.067 4.55777 2.2729 1036.31 
649 1 175.262 4.9567 -1.01422 1017.05 
650 1 175.778 7.91965 1.93163 1021.16 
651 1 178.608 4.84516 2.35912 1016.76 
652 1 178.495 7.6777 -0.822376 1033.5 
653 2 178.477 7.41235 1.74501 1034.65 
654 2 178.087 4.19567 -1.05427 1028.8 
655 2 175.53 7.56928 -0.940987 1048.34 
656 2 175.683 4.4661 2.45704 1007.3 
657 1 181.57 4.66532 -1.06803 1021.49 
658 1 181.507 7.27271 1.76463 1042.89 
659 1 184.414 4.65398 2.06294 1026.56 
660 1 184.772 7.73128 -1.00237 1025.96 
661 2 184.467 7.5872 1.72963 1030.46 
662 2 184.221 4.63076 -1.15509 1025 
663 2 181.528 7.07408 -1.08616 1040.66 
664 2 181.658 4.63167 1.7383 1051.56 
665 1 187.741 4.37549 -0.916614 1014.62 
666 1 187.555 7.20223 1.88649 1040.15 
667 1 190.695 4.54051 2.25121 997.681 
668 1 190.544 7.38689 -1.46344 1038.38 
669 2 190.311 6.87137 2.3159 1034.92 
670 2 190.399 4.27774 -0.868832 999.271 
671 2 187.247 7.76763 -0.854194 1009.66 
672 2 187.267 4.42175 2.23176 1020.49 
673 1 193.427 4.71341 -0.380986 1042.27 
674 1 193.26 7.57759 2.21362 1026.41 
675 1 196.005 4.47232 2.48659 1013.84 
676 1 196.229 7.42883 -1.1698 1012.77 
677 2 196.129 7.66713 2.27183 1005.28 
678 2 196.364 4.34021 -0.36951 1020.99 
679 2 193.044 7.16811 -0.558722 1019.5 
680 2 193.037 4.30157 2.05169 1034.87 
681 1 198.836 4.32573 -0.928841 1007.24 
682 1 198.918 6.95903 2.54743 1005.9 
683 1 201.474 4.284 2.53235 1003.74 
684 1 201.623 7.22344 -1.02558 1001.86 
685 2 201.494 7.13917 2.48087 1015.29 
686 2 201.235 4.44328 -0.464011 1017.63 
687 2 198.842 7.18536 -1.10096 1020.38 
688 2 198.738 4.10172 3.18128 1004.68 
689 1 204.141 4.25403 -1.33081 991.008 
690 1 204.462 7.68884 2.81199 1039.52 
691 1 206.698 4.93346 1.98534 1015 
692 1 206.536 7.89792 -1.30918 1006.5 
693 2 207.73 7.17977 1.6247 1020.19 
694 2 206.727 4.10864 -0.880546 1009.67 
695 2 204.125 7.76532 -0.772397 1019.87 
696 2 204.111 4.05913 2.15691 1010.97 
697 1 209.214 5.08524 -0.519808 978.551 
698 1 210.509 7.03476 1.50658 997.166 
699 1 213.14 4.52488 2.64743 985.483 
700 1 214.312 7.29793 -0.382926 992.199 
701 2 213.173 7.59591 2.05295 1008.67 
702 2 213.559 4.67734 -0.151411 1015.26 
703 2 210.584 7.62113 -1.38176 1011.16 
704 2 210.293 4.35424 2.29444 985.598 
705 1 216.462 4.505 -0.383294 1003.04 
706 1 216.206 7.69781 2.96745 998.222 
707 1 219.167 4.9789 2.10101 1003.23 
708 1 219.503 8.09099 -0.656721 1004.97 
709 2 219.004 7.42844 3.1054 974.048 
710 2 218.962 4.54892 -0.529645 1011.25 
711 2 216.899 7.42182 0.111301 1010.6 
712 2 215.855 4.49182 2.77469 986.962 
713 1 221.741 4.57162 -0.689755 985.189 
714 1 221.928 7.42548 2.35221 1005.54 
715 1 225.211 4.16773 2.09521 984.969 
716 1 224.718 7.27604 -0.133332 990.132 
717 2 224.749 7.59162 2.75545 988.978 
718 2 225.554 4.94622 -0.388499 990.775 
719 2 221.977 7.75765 -0.429094 968.689 
720 2 222.241 4.52289 2.04238 999.231 
721 1 227.888 4.8083 -0.529959 972.871 
722 1 228.142 7.09062 2.70814 982.12 
723 1 230.958 4.86197 2.15838 986.134 
724 1 230.404 8.04422 -0.288313 996.764 
725 2 230.712 7.77418 2.30591 990.779 
726 2 230.593 4.68537 -0.647084 996.077 
727 2 227.927 7.66088 -0.686186 977.885 
728 2 227.779 4.54681 2.58599 973.839 
729 1 233.573 4.19804 -0.400041 981.682 
730 1 233.803 7.50848 2.43181 976.489 