ITEM: TIMESTEP
5000000
ITEM: NUMBER OF ATOMS
8400
ITEM: BOX BOUNDS pp pp pp
-5.9099547646241319e+00 2.8359995476463484e+02
-2.1446273254920634e+00 4.0174627325491812e+01
-1.7757301867509554e+00 1.6325730186751606e+01
ITEM: ATOMS id type x y z f_TolTpA 
1 1 -4.57638 -0.895325 -0.694107 911.438 
2 1 -4.70047 1.96122 2.57103 898.997 
3 1 -2.06688 -1.24411 2.81431 915.679 
4 1 -1.25692 1.64296 -0.579817 908.801 
5 2 -1.5208 1.79883 2.89062 904.552 
6 2 -1.67491 -1.14267 -0.369461 913.229 
7 2 -4.25226 2.18212 -0.345629 890.674 
8 2 -4.50725 -0.598399 2.45169 928.614 
9 1 1.04448 -1.09202 -0.239125 907.163 
10 1 1.1017 1.97628 2.78711 918.613 
11 1 4.01956 -1.5003 2.89589 913.663 
12 1 4.04054 1.57963 -0.423052 932.947 
13 2 4.45113 1.90116 2.28196 913.412 
14 2 4.14882 -1.28604 -0.0784789 926.171 
15 2 1.55724 1.76918 -0.228932 896.327 
16 2 1.01892 -1.13902 2.99989 890.61 
17 1 7.35023 -0.456424 -0.00953179 897.287 
18 1 7.00921 2.12152 2.49255 931.619 
19 1 10.2067 -1.50499 3.00064 896.303 
20 1 10.1221 1.9984 -0.502997 926.859 
21 2 9.97668 1.78063 2.03331 930.08 
22 2 10.0069 -1.48143 -0.349164 915.823 
23 2 7.25397 2.08076 -0.909543 929.386 
24 2 7.4592 -1.39267 2.83948 897.452 
25 1 12.813 -1.23992 -0.554603 918.112 
26 1 12.398 1.75941 2.35483 926.978 
27 1 16.177 -0.964534 2.99806 931.766 
28 1 15.734 2.31155 -0.334112 935.549 
29 2 16.2685 1.60817 2.74583 932.138 
30 2 15.5926 -0.792225 -0.321964 925.489 
31 2 12.8032 2.15857 -0.159072 920.338 
32 2 13.0922 -1.74236 2.75595 932.139 
33 1 19.0392 -1.38983 -0.574124 946.842 
34 1 18.9114 1.59773 2.18778 934.238 
35 1 21.9025 -1.58049 3.21848 935.339 
36 1 21.7736 1.80611 -0.341773 920.749 
37 2 21.9449 1.79537 3.17718 910.541 
38 2 21.8357 -0.975425 -0.26739 938.142 
39 2 18.4802 1.9859 -0.238975 929.296 
40 2 18.8932 -1.19358 2.94477 934.157 
41 1 24.531 -1.74592 -0.161668 946.066 
42 1 24.7953 2.46025 2.99604 928.242 
43 1 26.9455 40.1065 2.65957 934.066 
44 1 27.1961 1.53125 -0.558018 939.491 
45 2 27.4993 2.00641 2.99777 936.44 
46 2 27.5885 -1.6687 -0.288947 923.436 
47 2 24.7264 2.07108 -0.373552 914.545 
48 2 24.4473 -2.11515 2.54441 935.439 
49 1 29.9277 -1.98289 0.43625 955.638 
50 1 29.7647 0.815 2.9917 940.178 
51 1 32.7588 -1.51432 3.28194 946.563 
52 1 33.1972 1.86968 -0.270509 947.317 
53 2 32.8264 1.08886 2.95346 941.496 
54 2 33.1202 -2.03036 -0.422661 957.4 
55 2 30.2991 1.73946 -0.501039 950.954 
56 2 29.8649 -1.7957 2.88549 974.741 
57 1 35.7417 -1.31831 0.062201 964.846 
58 1 36.0918 1.35215 2.59011 956.012 
59 1 38.8931 -1.32274 2.90229 962.903 
60 1 39.2355 1.60301 -0.402235 945.179 
61 2 39.0244 1.25524 3.21039 950.251 
62 2 38.2598 -1.35007 -0.0570854 987.106 
63 2 35.6897 1.63811 -0.282423 962.67 
64 2 35.6647 -1.60432 2.97965 942.848 
65 1 41.937 -1.59152 -0.428568 965.403 
66 1 41.9738 1.80933 2.40104 963.963 
67 1 44.8202 -1.93782 3.06698 950.084 
68 1 45.249 1.80173 0.148616 963.273 
69 2 44.8049 1.70998 2.5925 958.083 
70 2 44.8861 -1.85642 -0.151225 978.717 
71 2 41.7154 1.06248 -0.236352 946.934 
72 2 41.7626 -1.59914 2.61649 955.511 
73 1 47.525 -1.64914 -0.171518 1001.51 
74 1 47.3219 1.30576 3.0015 968.515 
75 1 50.8751 -1.73888 2.90249 969.107 
76 1 50.3458 1.43505 -0.330527 959.726 
77 2 50.6444 1.27719 2.61354 982.661 
78 2 49.9471 -1.542 0.132223 959.834 
79 2 47.9097 1.58602 -0.280067 956.215 
80 2 47.2008 -1.59484 3.02589 981.066 
81 1 53.0486 -1.60028 0.143748 964.721 
82 1 53.4198 1.60879 2.18143 989.346 
83 1 56.3385 -1.44016 3.02035 977.895 
84 1 56.8499 1.36647 -0.0236583 987.906 
85 2 56.6053 1.46822 2.69035 981.171 
86 2 56.781 -1.32754 -0.438829 977.1 
87 2 53.4043 1.03901 -0.195724 965.16 
88 2 53.4208 -1.60015 2.74556 985.318 
89 1 59.4271 -1.47743 -0.0756164 995.208 
90 1 59.3933 0.915164 2.94046 1003.23 
91 1 62.319 -1.73615 3.12696 982.325 
92 1 62.3651 1.06817 -0.147948 972.058 
93 2 61.7985 1.55105 3.1096 984.32 
94 2 62.5791 -1.63486 0.299337 979.495 
95 2 59.7395 1.26453 -0.171112 999.442 
96 2 59.4847 -1.44228 2.64316 979.091 
97 1 65.1888 -1.31816 -0.417594 1001.75 
98 1 65.0115 1.6475 2.73628 1006.12 
99 1 68.3506 -1.83372 2.7015 990.154 
100 1 68.083 1.43497 -0.261707 981.331 
101 2 67.9343 1.81681 2.75128 996.837 
102 2 68.0063 -1.72583 -0.525643 973.519 
103 2 65.0249 1.41881 -0.266079 968.891 
104 2 65.4857 -1.81435 3.40212 994.758 
105 1 71.1124 -1.61672 -0.50982 993.835 
106 1 71.061 1.87732 2.73514 974.311 
107 1 74.3077 -1.5459 3.05421 986.2 
108 1 73.7134 1.80043 -0.0704114 1002.3 
109 2 73.6059 1.62016 2.84211 992.052 
110 2 73.6211 -1.33776 -0.542484 999.694 
111 2 70.9399 1.58977 -0.246577 1016.82 
112 2 71.0085 -1.79793 2.52065 994.134 
113 1 76.4866 -1.45824 -0.622155 1022.15 
114 1 76.4099 1.51491 3.14171 1002.29 
115 1 79.8311 -1.79886 2.59777 1021.54 
116 1 79.1663 1.52204 -0.512866 999.239 
117 2 79.8362 1.38457 2.49962 984.729 
118 2 79.3918 -1.4951 -0.507974 1018.89 
119 2 76.1662 1.5877 -0.487972 980.169 
120 2 76.9806 -1.29683 3.32829 1004.65 
121 1 82.1396 -1.25121 -0.600862 1042.3 
122 1 82.1042 1.76279 1.91855 1001.03 
123 1 84.6787 -1.74227 2.50095 1001.52 
124 1 84.9552 0.977533 -0.895076 992.977 
125 2 85.0979 1.69503 1.53708 1033.54 
126 2 85.0184 -1.56185 -0.649219 1014.26 
127 2 82.4388 1.27669 -0.904676 1001.96 
128 2 82.2134 -1.03498 2.24437 1034.61 
129 1 87.7986 -2.1404 -0.207087 1020.32 
130 1 87.5322 1.49938 2.22986 1019.47 
131 1 91.2355 -1.43732 2.2785 1027.21 
132 1 90.9996 2.11821 -0.255606 1016.99 
133 2 91.0228 1.79031 2.5459 1022.22 
134 2 91.2566 -2.01653 -0.24713 1007.91 
135 2 88.5783 1.50262 -0.56798 1023.39 
136 2 88.1885 -1.57948 2.37302 1019.54 
137 1 93.8983 -2.07873 -0.565359 997.751 
138 1 94.15 1.2763 2.37838 1017.29 
139 1 96.9631 -1.53015 2.11177 1041.22 
140 1 96.3918 1.91833 -0.530774 1056.12 
141 2 96.5811 2.04374 2.15457 1018.56 
142 2 96.665 -1.54506 -0.504909 1024.29 
143 2 93.9271 2.4497 -0.344227 1033.19 
144 2 94.1193 -1.18911 2.44811 1016.06 
145 1 99.8704 -1.13741 -0.338229 1008.97 
146 1 99.316 1.95546 2.18667 1032.8 
147 1 102.788 -1.43406 2.38672 1031.63 
148 1 102.688 2.07755 -0.178175 1031.88 
149 2 102.598 2.05391 2.42045 1039.16 
150 2 103.464 -1.00274 -0.111996 1045.19 
151 2 99.3344 1.90614 -0.864001 1030.68 
152 2 99.3611 -1.12503 2.16674 1025.79 
153 1 106.021 -1.04561 -0.214092 1050.91 
154 1 106.143 1.63505 2.49674 1053.69 
155 1 109.107 -1.26514 2.39954 1048.32 
156 1 108.925 2.37967 -0.108853 1059.98 
157 2 108.993 1.81949 2.64678 1067.5 
158 2 108.964 -1.59316 -0.195035 1057.67 
159 2 106.453 2.10854 -1.00545 1020.95 
160 2 106.329 -0.670242 3.11582 1037.76 
161 1 111.668 -1.74852 -0.404696 1061.88 
162 1 111.887 1.4446 2.8023 1063.45 
163 1 114.439 -1.83201 2.51426 1065.78 
164 1 114.459 1.08455 -0.455003 1072.85 
165 2 114.368 1.50947 2.54652 1052.12 
166 2 114.33 -2.04913 -0.498786 1046.91 
167 2 111.813 1.74284 -0.0297041 1062.78 
168 2 111.705 -1.50253 3.20417 1049.5 
169 1 117.186 -1.32553 -0.55366 1068.27 
170 1 117.75 1.04338 2.77768 1073.29 
171 1 120.274 -1.5323 2.14995 1065.99 
172 1 120.212 0.962526 -0.746553 1066.5 
173 2 120.568 0.921264 2.73629 1069.27 
174 2 120.358 -1.43296 -0.555576 1050.48 
175 2 117.143 1.45378 -0.281471 1071.11 
176 2 117.572 -1.93515 2.38191 1092.59 
177 1 123.527 -0.994278 -0.413191 1070.04 
178 1 123.537 1.54355 2.08052 1085.67 
179 1 126.471 -1.22489 2.49104 1071.41 
180 1 126.013 1.85522 -0.981454 1070.86 
181 2 126.338 1.96837 2.48919 1071.75 
182 2 126.159 -1.12949 -0.779049 1084.06 
183 2 123.295 1.56043 -0.436838 1063.73 
184 2 123.461 -1.05992 2.29204 1066.42 
185 1 129.357 -1.09635 -1.18168 1073.15 
186 1 129.32 2.03363 2.47567 1080.3 
187 1 131.854 -0.939977 3.33145 1060.59 
188 1 131.52 1.66937 -0.269477 1063.12 
189 2 131.799 2.16581 2.57744 1090.85 
190 2 131.905 -1.546 -0.806994 1086.93 
191 2 128.781 1.8829 -0.447008 1062.73 
192 2 129.085 -1.35551 2.90653 1087.46 
193 1 134.577 -1.75003 -0.627207 1107.63 
194 1 135.005 1.70229 2.55196 1094.35 
195 1 138.234 -0.769059 3.05222 1114.87 
196 1 137.175 1.36328 -0.465582 1074.68 
197 2 137.65 2.095 2.42597 1136.44 
198 2 137.483 -1.4937 -0.397628 1119.43 
199 2 134.425 1.63707 -0.193656 1094.04 
200 2 135.329 -0.872134 2.80103 1095.01 
201 1 140.135 -0.903365 -0.446487 1115.19 
202 1 140.872 1.88771 3.5253 1112.58 
203 1 143.311 -1.46005 2.26045 1095.57 
204 1 143.266 1.79572 -0.206923 1118.11 
205 2 143.493 1.64165 2.98659 1110.24 
206 2 143.512 -1.21382 -0.123917 1114.28 
207 2 140.745 1.63548 0.0315207 1101.39 
208 2 140.303 -1.44701 2.22876 1141.41 
209 1 146.372 -1.19541 -0.749294 1090.32 
210 1 146.009 1.61778 2.4124 1100.53 
211 1 149.764 -1.48729 1.88156 1079.88 
212 1 149.078 1.64119 -0.861916 1083.35 
213 2 149.291 1.95352 2.87028 1101.2 
214 2 149.515 -1.58919 -0.713801 1084.68 
215 2 146.27 1.56841 -0.57916 1097.52 
216 2 146.955 -1.5412 1.75654 1095.25 
217 1 152.581 -2.08735 -0.760745 1066.27 
218 1 151.906 1.57781 2.67479 1102.67 
219 1 155.475 -1.50411 2.52831 1082.55 
220 1 155.147 0.712214 -0.639327 1066.78 
221 2 155.7 1.12735 1.95052 1088.72 
222 2 155.387 -2.09028 -0.921467 1076.94 
223 2 152.655 1.15511 -0.316155 1088.82 
224 2 152.46 -0.933223 2.38836 1072.33 
225 1 158.521 -1.78024 -0.810613 1091.84 
226 1 158.524 1.48575 1.81673 1057.49 
227 1 161.318 -1.15187 2.79231 1053.4 
228 1 161.187 1.75332 -0.482349 1069.85 
229 2 161.152 1.84706 2.38332 1073.98 
230 2 161.445 -1.34129 -0.867226 1051.89 
231 2 158.508 1.26231 -0.840636 1073.64 
232 2 158.577 -1.30421 2.55877 1053.48 
233 1 163.572 -1.30423 -1.42444 1043.35 
234 1 164.369 1.10077 2.38497 1056.96 
235 1 167.187 -1.81236 1.46189 1072.75 
236 1 167.182 1.72722 -0.275981 1078.74 
237 2 167.548 1.33923 2.59409 1054.67 
238 2 166.992 -1.53488 -1.1477 1087.25 
239 2 163.805 1.14091 -0.277512 1070.76 
240 2 163.867 -1.52109 2.14919 1065 
241 1 169.818 -1.45714 -1.05967 1074.74 
242 1 170.293 1.64976 2.66733 1077.01 
243 1 173.013 -1.0929 1.72662 1063.79 
244 1 172.402 1.70614 -1.23654 1039.37 
245 2 173.279 1.42206 2.23794 1054.43 
246 2 172.544 -1.04754 -0.945818 1067.9 
247 2 169.817 1.32708 -1.17933 1077.81 
248 2 170.094 -1.66931 2.13417 1067.41 
249 1 175.947 -1.4029 -0.852192 1076.02 
250 1 175.888 1.48629 1.94244 1051.01 
251 1 178.279 -1.38274 3.02672 1055.09 
252 1 178.579 1.18447 -0.6255 1045.9 
253 2 178.544 1.54028 1.94209 1033.78 
254 2 178.308 -1.89989 -0.347611 1037.03 
255 2 175.446 1.56718 -0.561834 1056.19 
256 2 175.501 -1.44284 2.20811 1058.57 
257 1 181.343 39.9879 -0.0698819 1040.97 
258 1 181.633 1.43125 1.70015 1056.29 
259 1 184.199 -1.22669 2.25815 1070.78 
260 1 184.394 0.776156 -0.836976 1024.97 
261 2 184.451 1.1645 2.26984 1071.26 
262 2 184.372 -1.78513 -0.665221 1037.47 
263 2 181.315 0.97443 -0.635739 1064.73 
264 2 181.62 -1.05511 3.03894 1058.86 
265 1 187.692 -1.86281 -0.846016 1025.6 
266 1 187.102 1.61525 2.41682 1040.75 
267 1 190.61 -0.97697 2.72566 1046.82 
268 1 190.01 1.69663 -1.18202 1029.73 
269 2 190.479 1.71385 2.18697 1037.97 
270 2 190.397 -1.41144 -0.730773 1032.63 
271 2 187.106 1.07782 -0.721539 1027.98 
272 2 187.086 -1.52302 2.23152 1038.47 
273 1 193.156 -1.35282 -0.344775 1008.24 
274 1 192.992 1.69312 2.82164 1014.66 
275 1 195.587 -1.22145 2.81562 1015.75 
276 1 196.009 1.55802 -0.635081 1012.84 
277 2 196.048 1.60619 2.3451 1021.82 
278 2 196.002 -1.72894 -0.75051 1028.9 
279 2 193.066 1.03381 -0.859052 1028.33 
280 2 193.136 -1.31436 2.46912 1040.36 
281 1 199.426 -1.49964 -0.97514 1012.41 
282 1 198.845 1.3565 2.44674 1045.75 
283 1 201.914 -1.2413 2.95765 1009.2 
284 1 201.679 1.86475 -1.01262 1037.36 
285 2 201.428 1.83633 2.61143 1019.62 
286 2 202.095 -1.1968 -0.0712769 1015.82 
287 2 198.628 1.10811 -0.478106 1018.03 
288 2 198.813 -1.33363 2.82262 1009.03 
289 1 204.754 -1.69347 0.193936 995.591 
290 1 204.106 1.86436 2.57985 1005.3 
291 1 207.33 -1.0952 2.78537 1010.81 
292 1 206.896 1.0235 -0.236625 996.697 
293 2 206.957 1.42095 2.14489 989.792 
294 2 207.201 -1.3862 -0.35185 1018.26 
295 2 204.214 1.65938 -1.02877 996.73 
296 2 204.421 -1.58224 2.75739 1013.7 
297 1 210.441 -1.04643 0.110607 983.723 
298 1 210.446 1.86062 2.51049 1024.78 
299 1 213.116 -1.84609 2.2003 1018.69 
300 1 213.241 1.74925 -0.692421 1027.44 
301 2 212.912 1.20047 2.1833 1001.01 
302 2 213.195 -1.7316 -0.689409 1005.47 
303 2 210.242 1.52063 -0.547271 1000.99 
304 2 210.098 -1.57061 2.61797 986.168 
305 1 216.269 -1.76458 -0.818073 998.687 
306 1 215.514 1.24049 2.17407 1008.44 
307 1 218.838 -1.5383 2.23127 1004.3 
308 1 218.919 1.39846 -1.07427 985.325 
309 2 218.899 1.53196 2.66068 987.195 
310 2 218.875 -1.296 -0.875364 992.607 
311 2 215.747 1.42535 -0.916012 992.267 
312 2 216.25 -1.30498 2.02533 979.626 
313 1 221.691 -1.19378 -0.764436 1012.83 
314 1 221.559 1.47604 2.37596 969.48 
315 1 224.53 -1.48558 2.34089 988.885 
316 1 225.002 1.98159 -0.704924 981.588 
317 2 225.102 1.27297 2.66809 1002.66 
318 2 224.47 -1.79353 -0.808335 1002.11 
319 2 221.874 1.40791 -0.64291 990.07 
320 2 221.658 -1.3075 2.50125 1003.22 
321 1 227.416 -1.25942 -0.573681 968.615 
322 1 227.687 1.38497 2.87981 972.949 
323 1 230.568 -1.17275 1.89742 982.006 
324 1 230.457 1.47552 -1.23612 982.481 
325 2 230.5 1.34183 2.5837 976.56 
326 2 230.767 -1.26174 -1.35285 987.718 
327 2 227.873 1.73964 -0.520209 992.673 
328 2 227.664 -1.04193 1.97109 957.759 
329 1 233.524 -1.05297 -1.20162 978.175 
330 1 233.232 1.55299 2.85825 983.872 
331 1 236.244 -1.50734 2.88461 974.19 
332 1 236.332 1.47845 -0.209554 969.834 
333 2 235.972 1.60878 2.22288 968.805 
334 2 236.209 -1.71579 -1.03345 973.77 
335 2 233.949 1.64409 -0.784452 986.863 
336 2 233.649 -1.195 1.68556 978.46 
337 1 239.122 -1.71996 -0.490422 974.397 
338 1 239.239 1.62807 2.33563 960.637 
339 1 241.934 -1.60037 2.09777 948.454 
340 1 242.764 1.21502 -0.60837 953.07 
341 2 242.923 1.94592 2.55225 953.432 
342 2 242.456 -1.01815 -0.354781 966.98 
343 2 238.934 1.20267 -0.37428 953.502 
344 2 239.223 -1.44604 2.30794 971.147 
345 1 245.046 -1.50038 -0.656801 955.96 
346 1 245.359 2.10787 2.94766 953.41 
347 1 248.169 -1.31176 2.14688 962.478 
348 1 247.562 1.30499 -0.426502 931.587 
349 2 247.856 1.42687 2.50131 937.265 
350 2 247.707 -1.40483 -0.773054 948.116 
351 2 245.153 1.40565 -1.09963 970.169 
352 2 245.245 -1.69472 2.05878 963.677 
353 1 250.627 -1.27723 -1.06724 943.06 
354 1 250.944 1.76784 2.09256 943.868 
355 1 253.163 -1.60719 1.93026 933.297 
356 1 253.458 1.59813 -0.705619 938.783 
357 2 253.309 0.997368 1.99815 952.25 
358 2 253.538 -1.03364 -1.05051 960.769 
359 2 250.763 1.49479 -1.04759 945.482 
360 2 250.592 -1.87387 2.12776 936.229 
361 1 256.125 -1.80796 -0.543284 948.819 
362 1 256.529 1.49333 2.28504 948.176 
363 1 259.193 -1.38427 2.13799 965.504 
364 1 259.519 1.47245 -0.710987 946.713 
365 2 259.083 1.58364 2.36717 941.406 
366 2 259.454 -1.53025 -0.822545 946.19 
367 2 256.668 1.36994 -0.792289 961.52 
368 2 256.648 -1.78503 2.27402 956.099 
369 1 262.099 -1.83298 -0.881691 947.974 
370 1 261.762 1.56925 1.87618 971.996 
371 1 265.168 -1.54628 2.35879 951.461 
372 1 264.917 1.03832 -0.440338 952.547 
373 2 265.357 1.32902 2.36401 934.243 
374 2 265.35 -2.01466 -0.674295 939.923 
375 2 262.179 1.03468 -0.832242 943.795 
376 2 262.705 -1.86333 1.87859 964.427 
377 1 268.175 -1.4226 -0.411123 941.847 
378 1 268.091 1.899 2.76162 939.299 
379 1 270.698 -1.07535 2.41996 932.22 
380 1 270.956 1.88663 -0.842759 933.607 
381 2 271.265 1.95331 2.65651 943.503 
382 2 271.014 -1.34536 -0.229118 947.553 
383 2 267.973 1.78882 -0.710071 925.003 
384 2 267.989 -1.3261 2.25455 924.547 
385 1 273.386 -1.43226 -0.313214 926.019 
386 1 273.788 1.54633 2.42921 906.758 
387 1 276.927 -1.20595 2.53643 922.547 
388 1 276.449 1.89614 -1.08429 933.993 
389 2 276.345 1.73376 2.53059 928.72 
390 2 277.023 -0.610247 -0.995554 930.305 
391 2 273.888 1.87507 -0.476799 934.206 
392 2 273.705 -1.51146 2.37704 935.236 
393 1 279.727 -0.996344 -0.86322 925.358 
394 1 279.088 1.59269 2.46382 929.689 
395 1 282.467 -0.755253 2.74069 915.163 
396 1 282.331 2.13365 -0.466403 898.397 
397 2 282.342 1.93842 2.38851 900.465 
398 2 282.232 -1.29121 -1.00461 930.696 
399 2 279.796 1.91331 -0.567943 914.216 
400 2 279.882 -1.22102 2.67922 917.465 
401 1 -4.49638 4.94448 -0.384962 905.742 
402 1 -4.31767 7.72168 3.43475 918.167 
403 1 -1.43266 4.82435 2.05853 891.158 
404 1 -1.53568 7.54393 -0.182531 906.245 
405 2 -1.73585 8.0755 2.69475 905.518 
406 2 -0.839696 4.77486 -0.596858 891.668 
407 2 -3.82438 7.87046 -0.123379 903.544 
408 2 -4.2936 4.64602 2.77556 906.992 
409 1 1.88208 5.04565 -0.61494 927.281 
410 1 1.03003 7.77272 2.33797 904.475 
411 1 4.05232 4.96468 2.66161 919.853 
412 1 4.33767 7.93923 -0.744006 912.999 
413 2 4.03601 8.1292 3.01925 897.632 
414 2 4.33009 5.46233 -0.67477 940.716 
415 2 1.52799 8.01966 -0.46633 905.707 
416 2 1.34641 4.75179 2.56407 912.538 
417 1 6.94186 4.99831 -1.15547 905.608 
418 1 6.89378 7.95551 2.63902 903.901 
419 1 9.63838 4.55758 2.03714 912.677 
420 1 10.2793 8.55919 -0.528854 913.247 
421 2 9.86273 7.53694 1.8264 920.864 
422 2 10.1099 4.85461 -1.06515 933.867 
423 2 7.295 8.01225 -0.609401 893.107 
424 2 6.77931 4.54906 2.89487 939.007 
425 1 12.5701 4.84498 -0.419852 944.088 
426 1 12.7448 7.80193 2.40746 931.906 
427 1 16.0522 4.28545 3.15502 921.8 
428 1 15.6754 7.3123 -0.726066 948.378 
429 2 15.3286 7.42577 2.2673 914.88 
430 2 16.0287 4.67793 -1.13593 941.366 
431 2 13.0453 7.81965 -0.6863 910.045 
432 2 12.3066 4.68087 2.60097 939.043 
433 1 18.7278 4.84379 -0.24154 954.677 
434 1 17.9682 7.8665 2.49279 941.851 
435 1 21.7442 5.04271 2.58617 932.144 
436 1 21.797 7.75447 -0.223453 945.622 
437 2 21.7109 7.86335 2.63457 922.51 
438 2 21.528 4.67986 -0.00843983 940.602 
439 2 18.6873 7.48192 -0.0202471 924.411 
440 2 19.026 4.44633 2.97239 925.109 
441 1 24.3949 4.44134 -0.225563 923.841 
442 1 24.4551 7.86299 3.27048 931.439 
443 1 27.3666 4.76664 2.96203 930.093 
444 1 27.5844 7.31985 -0.000828122 944.055 
445 2 27.4247 7.78406 2.96357 960.223 
446 2 27.4432 4.20535 -0.559008 946.283 
447 2 24.336 6.88508 -0.254942 942.698 
448 2 24.5743 5.02401 3.04157 919.855 
449 1 30.1427 4.70218 -0.372621 947.042 
450 1 30.5353 7.81174 2.79362 931.804 
451 1 32.8881 4.71364 2.44427 939.331 
452 1 33.4844 7.78925 -0.695283 960.406 
453 2 33.481 7.47271 2.6277 952.507 
454 2 33.3804 4.93179 -0.637383 961.377 
455 2 30.8842 7.88851 -0.33153 957.864 
456 2 29.9311 5.33231 2.13931 953.895 
457 1 35.892 4.79593 -0.0181311 941.845 
458 1 35.9793 7.99888 3.20213 947.973 
459 1 38.8201 4.95877 2.89136 956.349 
460 1 39.1444 7.62772 -0.560425 961.065 
461 2 39.2225 8.06966 3.1562 932.985 
462 2 38.6823 4.10597 -0.720028 935.321 
463 2 36.27 7.78224 -0.397025 934.584 
464 2 35.7816 4.15935 2.42214 949.855 
465 1 41.5523 3.94188 -0.679114 950.228 
466 1 41.7073 7.65894 2.17015 955.328 
467 1 44.909 4.55795 2.35418 962.592 
468 1 44.5247 7.18817 -0.303884 970.806 
469 2 44.5731 7.15312 2.59012 951.513 
470 2 44.7136 4.23463 -0.158056 954.773 
471 2 41.833 7.15849 -0.828927 963.787 
472 2 41.2887 4.36378 1.89337 965.271 
473 1 47.9783 4.5586 -0.255537 957.099 
474 1 47.2463 7.49124 3.00969 956.28 
475 1 51.0128 4.39669 2.71658 973.906 
476 1 50.7341 7.65549 -0.355037 972.006 
477 2 51.0987 7.52472 2.58787 957.851 
478 2 50.5974 4.64994 0.10633 968.328 
479 2 47.4406 7.35603 -0.351027 966.608 
480 2 47.9596 4.66408 2.64958 965.942 
481 1 53.427 4.61955 -0.00688619 978.451 
482 1 53.4367 7.53533 2.60959 961.881 
483 1 56.5442 4.01569 2.58363 978.943 
484 1 56.2795 7.47455 0.378427 986.754 
485 2 56.2817 7.64344 2.90008 980.907 
486 2 56.2433 4.29073 -0.219498 982.849 
487 2 53.5719 7.43342 -0.306016 976.677 
488 2 53.8852 4.48763 2.22275 979.609 
489 1 59.4665 4.44493 -0.0149273 973.252 
490 1 59.0957 7.42916 2.75949 996.391 
491 1 61.9773 4.33637 3.13735 972.03 
492 1 61.8381 7.83457 0.273881 989.334 
493 2 62.1156 7.46176 3.16236 1004.35 
494 2 61.8357 4.58125 0.0979243 985.206 
495 2 58.9929 7.76792 -0.0516502 984.851 
496 2 59.1465 4.69156 2.63235 989.31 
497 1 64.6179 4.86122 0.0970732 972.964 
498 1 65.3336 7.55693 2.59605 987.614 
499 1 68.1703 4.71448 2.79445 1002.39 
500 1 68.0526 7.74933 -0.25926 983.505 
501 2 67.6933 8.00017 2.95545 990.21 
502 2 67.7809 4.64027 -0.220645 997.647 
503 2 65.4318 7.59993 -0.216291 966.299 
504 2 64.6472 4.52849 2.56334 980.274 
505 1 70.6973 4.26185 -0.406 997.827 
506 1 71.1843 7.81481 2.52254 986.352 
507 1 74.2415 5.19302 2.21995 996.242 
508 1 73.437 7.57615 -0.463051 1004.55 
509 2 73.5989 7.7199 2.77272 973.954 
510 2 73.3618 4.97652 -0.394701 1015.78 
511 2 70.8111 7.96491 -0.462071 1018.72 
512 2 71.0746 4.64558 2.56935 999.504 
513 1 76.1962 4.31197 -0.604706 1008.21 
514 1 76.637 7.95555 2.56572 995.052 
515 1 79.1114 4.63392 2.51723 1020.58 
516 1 79.2582 7.38181 -0.286393 1013.47 
517 2 79.3435 7.53171 2.36531 993.659 
518 2 78.9547 4.22821 -0.313068 1003.18 
519 2 76.875 7.08945 -0.0960003 1007.1 
520 2 76.4563 4.30766 2.95619 994.997 
521 1 82.1912 5.05056 -0.726889 1012.63 
522 1 82.1995 7.3785 2.6983 1002.74 
523 1 85.3237 4.39006 2.11906 1010.61 
524 1 84.9993 8.34286 -0.340804 999.616 
525 2 85.403 7.38297 2.60572 1004.36 
526 2 85.7602 5.36385 -0.804126 995.058 
527 2 82.1662 7.79159 -0.333403 1009.12 
528 2 82.7308 5.07141 2.07472 1017.47 
529 1 88.2568 4.0007 -0.762682 997.523 
530 1 87.8974 7.32697 2.05576 1008.88 
531 1 90.9241 4.59008 2.19969 1000.24 
532 1 91.1687 7.75499 -0.979999 1009.86 
533 2 90.9729 7.38178 2.85618 1023.81 
534 2 91.1612 5.21602 -0.772073 1010.16 
535 2 88.8071 7.84586 -0.538675 1012.16 
536 2 88.1219 4.63106 2.29694 1010.13 
537 1 94.3262 5.18211 -0.330931 1021.6 
538 1 93.9638 8.06295 2.43973 1027.02 
539 1 97.0192 5.18672 2.73058 1026.78 
540 1 96.6948 8.19277 -1.00906 1026.36 
541 2 96.6023 8.00078 2.80137 1031.6 
542 2 97.0022 4.84655 -0.671621 1015.47 
543 2 94.0902 7.86718 -0.126045 1008.7 
544 2 94.3732 5.18595 2.76494 1012.89 
545 1 99.2909 5.55093 -0.209829 1030.03 
546 1 99.3489 8.03792 2.7542 1048.88 
547 1 102.404 4.55195 2.2123 1045.2 
548 1 102.526 8.14712 -0.0729803 1032.39 
549 2 102.223 8.27856 2.74706 1058.74 
550 2 102.088 5.48192 -0.682533 1035.26 
551 2 99.5629 8.18493 -0.471887 1036.85 
552 2 99.2336 4.73365 2.76683 1054.05 
553 1 106.12 4.70193 -0.34131 1047.75 
554 1 105.49 7.98205 2.91347 1053.79 
555 1 109.393 4.74511 2.65983 1055.18 
556 1 108.413 8.08107 0.289762 1066.2 
557 2 107.98 8.08321 2.76774 1059.77 
558 2 108.901 4.77472 -0.620421 1081.76 
559 2 105.77 8.08321 -0.678301 1072.86 
560 2 105.459 4.20323 2.18765 1048.93 
561 1 111.608 5.13052 -1.24733 1066.41 
562 1 112.111 7.84035 3.05575 1073.89 
563 1 114.737 4.27987 3.11647 1103.67 
564 1 114.022 7.22351 -0.297938 1081.3 
565 2 114.765 7.0699 2.6011 1055.33 
566 2 114.527 4.71682 -0.990679 1077.33 
567 2 111.347 7.09351 0.423402 1050.24 
568 2 111.925 4.50169 3.23883 1056.64 
569 1 117.484 4.24962 -0.118068 1051.46 
570 1 117.242 7.95415 2.20499 1048.44 
571 1 120.577 4.24561 2.32261 1060.5 
572 1 119.939 7.90847 -0.366043 1065.9 
573 2 119.667 7.49068 2.46145 1049.06 
574 2 120.243 4.3491 -0.589973 1082.94 
575 2 117.156 7.86709 -0.35339 1047.75 
576 2 117.321 3.89978 2.85696 1057.85 
577 1 123.061 4.37045 -0.92266 1078.85 
578 1 123.67 7.20365 2.15329 1084.94 
579 1 126.489 4.40811 2.59705 1074.87 
580 1 125.907 7.33511 -0.748081 1067.32 
581 2 126.098 7.8048 2.47234 1081.8 
582 2 126.122 4.53988 -0.894431 1088.73 
583 2 123.291 7.42575 -0.684621 1064.39 
584 2 122.941 4.49821 2.26944 1057.75 
585 1 128.76 4.77428 -0.74361 1074 
586 1 128.658 7.55459 2.91625 1065.14 
587 1 131.523 4.93719 2.3388 1084.96 
588 1 131.762 8.03976 -0.909606 1089.17 
589 2 131.994 7.65755 2.94155 1077.32 
590 2 131.565 4.28722 -0.320466 1063.78 
591 2 129.118 7.63928 -0.299776 1072.99 
592 2 129.018 4.835 2.87478 1079.79 
593 1 134.539 5.01348 -0.508644 1093.12 
594 1 134.933 7.87152 2.70302 1114.58 
595 1 137.898 4.91626 2.94329 1082.52 
596 1 137.881 7.51752 0.122692 1119.92 
597 2 137.507 7.58248 2.97995 1087.42 
598 2 137.073 4.8663 -0.112131 1100.33 
599 2 134.546 7.56321 -0.902652 1086.6 
600 2 134.397 5.2801 3.14908 1107.48 
601 1 140.133 4.18282 -0.116551 1104.77 
602 1 140.608 7.88083 3.13076 1094.33 
603 1 142.991 4.2429 2.23703 1107.87 
604 1 143.286 7.96967 0.122445 1111.29 
605 2 143.46 7.77872 3.04075 1095.79 
606 2 143.859 4.92707 0.013077 1102.86 
607 2 140.411 7.01573 0.0131923 1137.41 
608 2 140.435 4.15252 3.0311 1100.05 
609 1 146.258 4.64393 -0.664945 1114.84 
610 1 146.692 7.47749 2.80672 1102.41 
611 1 148.973 4.49074 2.74454 1105.52 
612 1 149.755 7.59156 -0.776059 1091.88 
613 2 149.469 7.86225 3.10042 1094.56 
614 2 149.192 4.2614 -0.542823 1107.03 
615 2 146.638 7.3143 0.0896885 1104.01 
616 2 146.153 4.42252 2.64882 1104.69 
617 1 152.441 4.54229 0.041458 1081.41 
618 1 152.354 7.75412 1.83563 1090.75 
619 1 155.574 3.80361 1.73065 1085.14 
620 1 155.448 7.90625 -0.846379 1071.03 
621 2 154.999 7.81741 1.97146 1099 
622 2 155.335 4.77753 -0.879065 1110 
623 2 152.318 7.13422 -0.652101 1094.1 
624 2 152.4 4.68646 2.56594 1091.22 
625 1 158.437 4.41785 -1.03121 1056.29 
626 1 158.329 7.7628 1.94025 1092.69 
627 1 161.207 4.47448 1.98091 1079.18 
628 1 160.914 7.85588 -0.579884 1066.63 
629 2 160.785 7.98209 2.47869 1072.47 
630 2 161.265 4.04922 -0.87877 1065.37 
631 2 158.359 7.51246 -0.589603 1069.03 
632 2 158.446 4.32567 1.97898 1072.18 
633 1 164.182 4.26428 -0.167234 1061.17 
634 1 163.732 7.95598 2.45509 1052.95 
635 1 167.144 4.61351 2.56155 1086.29 
636 1 166.798 8.19744 -1.3314 1046.37 
637 2 166.938 7.98263 2.57632 1054.91 
638 2 166.863 4.38209 -0.755902 1079.47 
639 2 163.852 7.8676 -0.289133 1056.11 
640 2 164.16 4.45128 2.49194 1095.75 
641 1 170.246 4.44575 -0.987691 1071.16 
642 1 169.618 8.00975 1.96306 1040.82 
643 1 172.883 4.77205 2.26139 1069.33 
644 1 172.51 7.53272 -0.627882 1053.8 
645 2 172.499 7.49313 2.64968 1050.82 
646 2 172.892 4.37106 -0.825461 1083.63 
647 2 169.712 7.83206 -1.03282 1037.56 
648 2 170.569 4.29729 1.9389 1040.21 
649 1 175.62 3.9751 -0.672863 1071.86 
650 1 175.221 7.42236 2.37269 1060.76 
651 1 178.429 4.00357 1.88433 1055.48 
652 1 177.985 6.94923 -0.522069 1052.78 
653 2 178.414 7.98056 1.97858 1050.19 
654 2 178.184 4.25368 -0.659401 1054.04 
655 2 175.341 7.26898 -0.637995 1066.09 
656 2 175.871 4.5848 2.29421 1051.01 
657 1 181.572 3.85557 -0.223066 1047.95 
658 1 181.229 7.29242 2.08159 1034.37 
659 1 184.174 4.33138 2.89085 1011.08 
660 1 183.778 7.26469 -0.574949 1042.3 
661 2 184.247 7.77876 2.00437 1040.01 
662 2 184.55 4.6868 -0.802846 1049.7 
663 2 181.308 7.21862 -0.306812 1051.04 
664 2 181.588 4.25129 2.11459 1031.58 
665 1 187.044 5.04499 -0.553745 1022.54 
666 1 187.513 7.63442 2.50176 1026.24 
667 1 190.064 4.63071 2.61376 1032.97 
668 1 190.048 7.15152 -0.995326 1030.91 
669 2 190.542 7.7939 1.94586 1044.13 
670 2 189.933 4.5444 -0.868636 1029.1 
671 2 187.343 7.65545 -0.678554 1030.98 
672 2 186.978 3.98775 2.58145 1027.65 
673 1 192.914 4.14574 -0.421371 1019.49 
674 1 193.04 7.88715 1.43512 1009.52 
675 1 195.848 4.57903 2.51431 1005.29 
676 1 195.959 7.0067 -0.643554 1047.6 
677 2 195.878 7.3823 2.41358 1016.1 
678 2 196.033 4.40052 0.0179333 1020.74 
679 2 192.775 7.22584 -0.968607 1019.83 
680 2 193.125 4.49006 2.20265 1027.9 
681 1 198.775 4.28366 -0.357608 1007.59 
682 1 198.822 7.45499 1.91043 998.657 
683 1 201.567 4.60902 2.65505 1024.99 
684 1 201.4 7.68958 -1.0045 1017.48 
685 2 201.561 7.08515 2.56872 1039.31 
686 2 201.722 4.61915 -0.826732 1023.96 
687 2 198.421 8.07914 -1.22349 1006.93 
688 2 198.845 4.66262 2.50652 1024.41 
689 1 204.454 5.34083 -0.679111 1001.54 
690 1 204.399 7.2452 2.62657 1011.37 
691 1 207.181 4.87697 2.19942 1006.03 
692 1 207.95 7.51149 -0.551466 1017.46 
693 2 207.158 7.30181 2.2691 1001.39 
694 2 207.215 5.00045 -0.60274 1010.6 
695 2 203.966 7.6478 -0.858589 1013.29 
696 2 204.356 4.54023 2.23352 1012.37 
697 1 209.898 4.38068 -0.459511 1003.87 
698 1 210.762 7.88752 2.56656 1034.94 
699 1 212.698 4.6294 2.15497 1005.49 
700 1 213.633 7.73723 -0.901739 1011.83 
701 2 213.376 7.88129 2.08564 992.428 
702 2 213.075 4.55588 -0.775546 987.993 
703 2 210.558 7.12445 -0.296512 1019.13 
704 2 210.157 4.1158 2.07816 1014.59 
705 1 216.512 4.35953 -0.883177 1001.46 
706 1 216.277 7.31452 2.07236 995.514 
707 1 218.729 4.16648 2.73046 1012.73 
708 1 219.308 7.27471 -0.886866 978.975 
709 2 218.953 7.51793 2.63814 975.869 
710 2 219.36 4.07113 -1.07799 976.754 
711 2 216.349 7.17599 -0.676874 994.504 
712 2 216.065 4.14955 2.45018 1003.7 
713 1 222.069 4.40295 -1.00882 987.032 
714 1 221.906 7.19557 2.2138 979.285 
715 1 225.191 4.5362 2.49206 983.898 
716 1 224.949 7.6335 -0.867508 954.19 
717 2 225.182 7.30657 2.23348 980.812 
718 2 224.513 4.69827 -1.16136 977.803 
719 2 221.676 7.213 -1.3513 1000.28 
720 2 222.239 4.16685 2.72799 994.085 
721 1 228.12 4.30886 -0.651452 965.414 
722 1 227.976 7.99077 2.51535 992.721 
723 1 230.549 4.04324 2.32838 980.905 
724 1 230.61 7.60449 -0.819 980.055 
725 2 230.511 7.91513 2.22504 991.614 
726 2 230.844 4.63589 -0.454989 991.359 
727 2 227.829 7.66244 -1.28427 975.568 
728 2 227.99 4.80593 2.24095 989.231 
729 1 233.798 4.13151 -0.756114 987.333 
730 1 233.09 6.93993 2.48813 972.728 