ITEM: TIMESTEP
6000000
ITEM: NUMBER OF ATOMS
8400
ITEM: BOX BOUNDS pp pp pp
-5.9099547646241319e+00 2.8359995476463484e+02
-2.1446273254920634e+00 4.0174627325491812e+01
-1.7757301867509554e+00 1.6325730186751606e+01
ITEM: ATOMS id type x y z f_TolTpA 
1 1 -4.50959 -1.38433 -0.464916 920.858 
2 1 -4.54135 1.96868 2.80063 915.407 
3 1 -1.44849 -1.12883 2.22491 914.422 
4 1 -1.80346 2.2831 -0.226982 912.066 
5 2 -1.83818 1.75654 2.23042 913.564 
6 2 -1.49051 -1.65598 -0.543659 894.664 
7 2 -4.84794 2.06677 -0.226623 911.012 
8 2 -4.42767 -1.23119 2.1543 904.784 
9 1 1.28757 -1.52652 -0.899156 921.78 
10 1 1.61 1.4442 2.36579 906.088 
11 1 3.84249 -1.70825 2.36125 938.271 
12 1 4.89075 1.94297 -0.563862 931.895 
13 2 4.37208 1.2773 2.77895 938.807 
14 2 3.85546 -1.77225 -0.624999 936.6 
15 2 1.38671 2.0104 -0.543843 921.763 
16 2 1.16649 -1.19511 1.81311 913.18 
17 1 7.58756 -1.73115 -0.449166 919.301 
18 1 7.59008 1.47205 2.41104 932.641 
19 1 10.0248 -1.56829 2.65312 936.103 
20 1 10.5505 1.47936 -0.679333 938.32 
21 2 10.2009 1.80639 2.33538 937.847 
22 2 10.5475 -1.52875 -1.21276 926.359 
23 2 7.68174 1.10982 -0.422119 934.473 
24 2 7.66558 -2.09217 2.70717 948.171 
25 1 13.3507 -2.10919 -0.853708 930.998 
26 1 12.8711 1.69797 2.57152 929.363 
27 1 15.5703 -0.938876 2.91653 930.187 
28 1 16.0354 1.60685 -1.00355 946.565 
29 2 16.0643 1.62345 2.26023 920.452 
30 2 15.9826 -1.82467 -1.2112 940.374 
31 2 13.5096 2.01688 -0.377313 933.868 
32 2 12.7052 -1.70375 1.81548 936.16 
33 1 18.5357 -1.7677 -1.11924 927.716 
34 1 18.5991 2.03098 2.45559 928.257 
35 1 21.0654 -1.38677 2.35478 950.207 
36 1 21.5294 1.24938 -0.558638 923.852 
37 2 21.3427 1.01957 2.25116 928.105 
38 2 21.074 -2.08669 -0.198043 932.254 
39 2 18.8004 1.3095 -0.528345 947.157 
40 2 18.2823 -1.3327 3.06228 943.73 
41 1 24.4513 40.0375 -0.435198 949.107 
42 1 24.4371 1.10298 2.35926 940.508 
43 1 27.63 40.045 2.64568 962.912 
44 1 26.8445 0.904815 -0.758911 938.057 
45 2 27.7395 1.7848 2.09079 933.684 
46 2 27.1759 39.9913 -0.881081 951.73 
47 2 24.2249 1.08897 -0.901146 945.25 
48 2 25.1968 -2.08817 2.35608 949.837 
49 1 30.3662 -1.71293 -1.12873 951.063 
50 1 30.0296 1.04838 1.88375 955.407 
51 1 32.9418 -1.86391 2.40359 964.692 
52 1 33.5917 1.66216 -1.34664 959.047 
53 2 32.6105 1.19188 2.2087 967.086 
54 2 33.1972 -1.18777 -0.789856 951.553 
55 2 29.6688 0.959252 -1.0117 946.029 
56 2 29.8793 -1.98489 2.14426 956.381 
57 1 36.2553 -1.3185 -1.02866 959.781 
58 1 36.4301 1.03469 2.00911 958.551 
59 1 39.2579 -1.04266 1.98273 964.68 
60 1 39.3597 1.51096 -0.870315 953.721 
61 2 39.0132 1.64669 1.99633 947.088 
62 2 39.072 -1.54602 -0.629212 954.614 
63 2 35.8962 1.58104 -0.445247 959.28 
64 2 35.9618 -1.72727 1.88577 962.759 
65 1 41.9192 -1.72871 -1.11226 979.798 
66 1 41.8279 1.18119 2.8625 975.353 
67 1 44.7421 -1.62403 1.83615 979.074 
68 1 44.3067 1.66951 -1.29315 994.629 
69 2 44.504 1.4426 1.98494 973.564 
70 2 45.0976 -1.62837 -1.32834 982.299 
71 2 41.9252 1.13406 -1.07496 973.24 
72 2 42.2698 -1.3895 2.24581 960.124 
73 1 47.8328 -1.90704 -1.15158 994.666 
74 1 47.2607 1.67691 2.10824 973.494 
75 1 50.7603 -1.57375 2.55189 999.189 
76 1 50.046 1.93967 -0.43677 987.666 
77 2 50.4813 1.39812 2.33389 950.932 
78 2 50.0737 -0.812992 -1.41609 979.349 
79 2 47.4458 1.86411 -1.1382 970.277 
80 2 47.6763 -1.56839 1.93953 987.965 
81 1 53.2166 -1.64986 -1.45607 981.407 
82 1 53.1862 1.05727 1.48631 1013.36 
83 1 55.8572 -2.04174 1.69837 997.32 
84 1 56.0081 1.61474 -0.899467 991.54 
85 2 56.246 2.10518 1.82883 989.995 
86 2 55.5838 -1.00204 -0.949108 1003.63 
87 2 53.241 1.90877 -1.00439 999.372 
88 2 53.0617 -1.67353 1.44237 986.094 
89 1 59.2431 -1.69362 -0.447861 999.93 
90 1 58.8068 2.14938 2.50244 1001.89 
91 1 61.4822 -0.814939 2.33821 984.964 
92 1 61.6979 1.7008 -0.865476 968.374 
93 2 61.5604 1.73398 3.07096 976.144 
94 2 61.6454 -1.05543 -0.253909 1002.31 
95 2 59.2348 1.47756 -1.15057 992.447 
96 2 58.7006 -1.39061 2.5657 999.754 
97 1 65.0514 -0.84116 -0.599386 1004.63 
98 1 65.0932 1.88796 2.6021 1002.03 
99 1 68.0091 -0.581286 2.03524 1002.28 
100 1 67.9898 1.85349 -0.92789 997.71 
101 2 68.3278 1.79692 2.51058 1000.7 
102 2 67.8565 -0.939376 -0.795114 988.98 
103 2 64.6522 2.23545 -0.1392 990.414 
104 2 65.3495 -0.844353 1.88316 997.869 
105 1 70.6929 -0.934094 -0.636657 1010.74 
106 1 70.7134 1.80402 2.69953 989.503 
107 1 73.6687 -1.07535 2.46804 990.743 
108 1 73.9673 2.05576 -0.0546101 1015.47 
109 2 73.0445 1.94602 3.07821 1001.68 
110 2 73.7105 -1.64674 -0.0118104 1015.81 
111 2 70.9725 1.71585 -0.606185 1008.86 
112 2 70.5698 -1.25648 1.94759 1013.94 
113 1 76.724 -1.10325 -0.237846 1000.32 
114 1 76.8427 2.43485 3.37467 1004.64 
115 1 79.1956 -1.41289 2.67176 1032.49 
116 1 79.4638 2.0912 -0.456148 1011.01 
117 2 79.1809 1.47706 2.16647 1003.28 
118 2 79.2236 -1.59282 -0.0606695 1007.47 
119 2 76.4745 2.08408 0.227864 1009.1 
120 2 76.3418 -1.05396 2.64676 1030.9 
121 1 82.5282 -2.03003 -0.0325748 1028.96 
122 1 82.1456 1.80033 2.38768 1026.43 
123 1 84.9042 -1.26266 2.62635 1008.22 
124 1 84.7922 1.59275 -0.325156 1046.8 
125 2 85.1484 1.30761 2.43818 1022.35 
126 2 84.9314 -1.6128 -0.684704 1020.64 
127 2 82.0264 1.44143 -0.406067 1023.16 
128 2 82.2889 -2.11917 2.56609 1018.42 
129 1 87.3612 -1.57285 -0.496945 1008.24 
130 1 87.7458 2.15185 2.52665 1006.29 
131 1 90.4611 -1.22818 2.26269 1019.43 
132 1 91.0052 1.55799 -0.750207 1000.83 
133 2 91.3641 1.34167 1.78702 1029.95 
134 2 91.3593 -1.94897 -0.708147 1012.28 
135 2 87.563 1.01725 -0.806197 1014.71 
136 2 87.7621 -1.23339 2.45094 1005.85 
137 1 94.2923 -0.958543 -0.791022 1024.88 
138 1 93.6917 1.22507 2.568 1013.27 
139 1 96.8559 -1.69963 2.1132 1047.49 
140 1 97.2236 1.40582 -0.61517 1030.03 
141 2 96.2736 1.72721 2.46124 1013.78 
142 2 96.7478 -1.52124 -0.595529 1030.66 
143 2 94.2707 1.42701 -1.02776 1019.22 
144 2 93.9882 -1.30072 2.50941 1040.42 
145 1 99.4041 -1.78278 -0.445826 1041.28 
146 1 99.3217 1.63078 2.28094 1042.05 
147 1 102.502 -0.888024 2.72584 1031.08 
148 1 102.515 1.52496 -0.517418 1031.34 
149 2 102.42 1.98847 2.48075 1021.66 
150 2 102.638 -1.19232 -0.185723 1032.76 
151 2 99.9378 1.39787 -0.854642 1021.06 
152 2 99.566 -0.784465 2.18104 1015.69 
153 1 105.504 -1.17338 -0.0150645 1026 
154 1 106.01 1.50669 2.73853 1055.35 
155 1 108.308 -1.98399 2.53253 1025.04 
156 1 108.936 1.45313 -0.0671648 1031.98 
157 2 108.949 1.50685 2.74484 1016.18 
158 2 109.133 -1.6217 -0.0464229 1044.6 
159 2 106.074 1.35322 -0.0123041 1034.52 
160 2 105.947 -1.40759 2.94933 1028.74 
161 1 111.697 -1.76036 -0.0129405 1024.89 
162 1 111.659 1.40007 2.69494 1029.22 
163 1 115.034 -1.57033 2.76441 1026.6 
164 1 114.185 1.73182 -0.532484 1021.37 
165 2 114.482 2.20279 2.55847 1034.65 
166 2 114.328 -1.5478 0.0516747 1041.59 
167 2 111.6 1.25572 -0.343691 1025.95 
168 2 111.661 -1.71257 3.27315 1045.18 
169 1 117.033 -0.644624 0.22914 1045.84 
170 1 116.998 1.99275 3.03557 1055.94 
171 1 120.066 -1.91125 2.68879 1054.84 
172 1 120.073 1.21329 0.235691 1063.97 
173 2 120.055 1.04909 3.30228 1071.7 
174 2 120.074 -1.65223 0.0554423 1063.34 
175 2 117.444 1.94063 0.29332 1040.57 
176 2 117.525 -1.41131 2.69212 1051.28 
177 1 123.273 -1.58312 0.105198 1057.25 
178 1 123.275 1.13997 2.75821 1083.11 
179 1 125.965 -2.14024 3.36176 1073.77 
180 1 126.47 2.01278 0.00220016 1065.56 
181 2 126.544 1.89222 2.88979 1082.05 
182 2 125.782 -1.4756 0.0503307 1076.12 
183 2 122.602 1.60949 0.11945 1039.44 
184 2 122.906 -1.77604 3.14335 1062.3 
185 1 129.091 -1.67837 -0.147235 1076.51 
186 1 128.818 1.19719 2.624 1062.63 
187 1 131.08 -1.32695 3.15783 1079.91 
188 1 131.697 0.871288 -0.356968 1111.52 
189 2 131.411 1.50621 2.96188 1087.39 
190 2 132.007 -1.62681 0.133312 1073.93 
191 2 129.224 1.46028 -0.618022 1083.25 
192 2 128.649 -1.38121 3.10654 1068.94 
193 1 134.708 -1.67351 -0.0282312 1080.06 
194 1 134.558 0.894607 2.37239 1107.06 
195 1 137.627 -1.28308 2.15589 1065.45 
196 1 137.649 1.67017 -0.621255 1099.08 
197 2 137.692 1.2834 2.22901 1080.52 
198 2 137.45 -1.56281 -0.492706 1089.21 
199 2 134.614 0.683702 -0.746183 1084.08 
200 2 134.842 -2.04832 2.63659 1103.18 
201 1 140.408 -1.31701 -0.630689 1104.49 
202 1 140.492 0.75057 3.28721 1094.57 
203 1 143.263 -1.78353 2.0835 1096.04 
204 1 143.171 2.01445 -0.604125 1103.42 
205 2 143.617 0.906814 2.56322 1100.82 
206 2 143.553 -1.13283 -0.441639 1085.4 
207 2 140.314 1.75611 -0.826894 1084.97 
208 2 140.438 -1.51341 2.5102 1086.94 
209 1 146.632 -1.70976 -0.281854 1087.28 
210 1 146.574 0.992005 2.53097 1066.73 
211 1 149.727 40.0341 3.08637 1086.3 
212 1 149.363 1.35456 0.284929 1092.54 
213 2 149.393 1.28816 2.88613 1072.56 
214 2 149.241 -1.96069 0.126772 1122.06 
215 2 146.169 1.7377 0.0690621 1088.4 
216 2 146.566 -1.80132 2.46358 1079.37 
217 1 152.488 -1.89875 0.338038 1085.85 
218 1 152.701 1.73045 2.83599 1073.09 
219 1 155.761 -0.809003 3.00247 1081.67 
220 1 155.368 1.21902 -0.439154 1082.59 
221 2 155.56 1.69433 2.72915 1094.63 
222 2 155.254 -1.64872 -0.478676 1071.51 
223 2 152.536 1.59703 0.337169 1083.08 
224 2 152.668 -1.41371 2.7975 1071.91 
225 1 158.212 -1.37292 -0.455841 1083.21 
226 1 158.451 2.3945 2.58981 1066.08 
227 1 161.497 -1.25904 2.58776 1075 
228 1 160.968 2.12928 -0.0331774 1095.41 
229 2 161.127 1.58847 2.72723 1068.97 
230 2 160.657 -1.50324 -0.792611 1099.11 
231 2 158.72 1.25063 -0.941348 1065.22 
232 2 158.455 -0.994053 2.32971 1059.76 
233 1 163.417 -1.02942 -0.501088 1051.2 
234 1 164.414 1.56765 2.3022 1080.57 
235 1 166.824 -1.86125 2.88851 1053.93 
236 1 167.204 2.02342 -0.0410216 1026.35 
237 2 167.014 1.92259 2.77143 1063.51 
238 2 166.573 -1.28828 -0.307938 1071.61 
239 2 163.524 1.90693 -0.392734 1059.66 
240 2 163.984 -1.37212 2.47078 1061.43 
241 1 170.237 -1.33101 -0.441866 1025.6 
242 1 169.574 1.40704 2.97986 1056.17 
243 1 173.182 -1.8947 2.53777 1053.81 
244 1 172.964 1.49012 0.312656 1059.26 
245 2 172.142 1.82439 2.75593 1055.78 
246 2 173.029 -1.53581 -0.460924 1068.61 
247 2 169.861 0.935729 0.129112 1013.69 
248 2 169.242 -1.22352 2.64272 1054.72 
249 1 176.147 -1.95323 -0.449327 1050.41 
250 1 175.492 1.51653 2.703 1073.56 
251 1 179.105 -1.79062 2.68921 1038.9 
252 1 178.583 1.37585 0.217829 1033.87 
253 2 179.12 1.1983 2.89379 1023.44 
254 2 178.642 -1.88179 -0.164974 1043.03 
255 2 175.757 1.93605 -0.0919774 1074.07 
256 2 176.01 -1.4898 2.14707 1053.97 
257 1 181.652 -1.6471 0.193159 1039.32 
258 1 181.218 1.60835 2.52132 1029.38 
259 1 184.378 -1.64695 2.67676 1031.71 
260 1 184.199 1.68329 -0.599767 1049.07 
261 2 184.194 1.54326 2.73702 1047.19 
262 2 184.348 -1.18879 -0.232718 1047.47 
263 2 181.262 0.78513 -0.58562 1029.9 
264 2 181.829 -2.05846 2.97996 1056.25 
265 1 186.981 -1.10745 -0.288346 1057.39 
266 1 187.221 1.21196 2.76846 1002.86 
267 1 189.616 -1.27778 3.02646 1042.63 
268 1 189.845 1.85453 -0.24244 1024.94 
269 2 189.708 1.31973 2.35986 1017.2 
270 2 189.554 -1.78399 -0.127666 1032.08 
271 2 187.233 1.40976 -0.29012 1045.81 
272 2 186.956 -1.32052 2.99105 1035.37 
273 1 193.388 -1.4255 0.117606 997.578 
274 1 193.035 1.63953 2.41372 1052.7 
275 1 196.211 -1.75541 2.82683 1014.49 
276 1 196.549 1.92067 -0.467228 1008.51 
277 2 196.038 1.71183 2.75376 1023.76 
278 2 196.39 -1.85573 -0.00822315 1004.66 
279 2 193.641 1.89357 -0.388828 1033.9 
280 2 192.644 -1.40779 2.56224 1021.75 
281 1 198.886 -1.57111 -0.472294 1019.57 
282 1 198.797 1.55848 2.58992 1029.13 
283 1 202.304 40.1171 1.98283 1015.27 
284 1 202.044 1.22801 -0.13819 1009.55 
285 2 201.92 1.62662 2.50612 1001.31 
286 2 202.155 -1.59914 -0.417548 1022.26 
287 2 199.244 1.86998 -0.0583598 996.466 
288 2 199.011 -1.43295 2.336 1026.99 
289 1 204.736 -1.46514 -0.572125 1002.41 
290 1 204.414 1.33564 2.31368 1014 
291 1 207.532 -1.77452 2.23155 979.162 
292 1 207.477 1.60536 -0.561233 1000.19 
293 2 207.216 1.49165 2.50261 1003.16 
294 2 207.396 -1.26966 -0.714414 972.796 
295 2 204.379 1.84097 -0.308882 1005.07 
296 2 204.931 -1.27814 2.20861 1018.42 
297 1 210.275 -1.12333 -0.242544 993.998 
298 1 209.963 2.14162 2.18673 1014.07 
299 1 212.831 -1.18791 2.63338 986.242 
300 1 212.685 1.82345 -0.236238 994.657 
301 2 212.867 1.85957 2.42578 983.355 
302 2 212.92 -1.19942 -0.648694 995.273 
303 2 210.408 1.48858 -0.501225 1009.35 
304 2 210.331 -1.70632 2.54886 995.378 
305 1 216.005 -1.27677 -0.207044 966.3 
306 1 215.99 1.56586 2.55229 992.492 
307 1 219.276 -1.23257 2.3254 994.586 
308 1 218.845 1.95052 -0.202285 992.044 
309 2 218.856 1.62116 2.57797 981.992 
310 2 218.852 -0.596898 -0.71158 970.57 
311 2 215.517 1.98604 -0.214127 1000.96 
312 2 215.996 -0.969523 2.34544 996.251 
313 1 221.75 -0.984907 -0.195501 980.701 
314 1 221.242 2.2513 2.27719 966.04 
315 1 224.467 -1.47425 2.21086 976.348 
316 1 224.729 1.71157 -0.0756482 1003.96 
317 2 225.126 2.21278 2.58452 984.785 
318 2 224.477 -1.62242 -0.679034 979.543 
319 2 221.909 2.17076 -0.318143 993.787 
320 2 221.832 -0.991133 2.69247 981.279 
321 1 227.296 -1.09252 -0.698719 982.108 
322 1 227.485 1.75986 2.66424 971.907 
323 1 230.28 -0.911699 2.22419 972.744 
324 1 230.138 1.71756 -0.631832 980.313 
325 2 230.184 1.99926 2.55933 961.281 
326 2 230.499 -0.39677 -0.75597 982.923 
327 2 227.33 1.89492 -0.326624 977.935 
328 2 227.431 -1.12851 2.11836 963.295 
329 1 233.385 -0.381146 -0.499406 972.777 
330 1 232.936 2.35361 2.30857 978.565 
331 1 235.771 -0.921301 2.49406 971.789 
332 1 236.436 1.54662 -0.129216 990.476 
333 2 236.049 1.57657 2.202 956.876 
334 2 236.293 -0.840535 -0.596928 958.993 
335 2 233.172 1.96729 -0.517736 957.779 
336 2 233.024 -1.42526 2.42134 946.184 
337 1 239.346 -1.23406 -0.156586 959.449 
338 1 238.829 1.56276 2.74542 968.258 
339 1 242.285 -1.01563 2.22724 972.41 
340 1 241.578 1.91383 -0.418978 976.982 
341 2 241.762 1.64689 2.14359 942.837 
342 2 242.175 -1.04538 -0.838269 995.179 
343 2 239.287 1.32706 -0.800827 965.712 
344 2 239.469 -0.977848 2.82823 976.441 
345 1 244.546 -0.974383 -0.979331 958.646 
346 1 244.875 2.22287 1.97532 951.832 
347 1 247.343 -1.08187 2.16274 966.933 
348 1 247.863 1.77005 -1.10658 960.322 
349 2 247.907 1.76208 1.74055 963.312 
350 2 247.786 -1.51499 -1.06071 995.002 
351 2 245.163 1.3709 -1.14432 980.475 
352 2 245.059 -1.02591 1.79877 950.429 
353 1 250.299 -1.64039 -0.786017 948.924 
354 1 250.545 1.58471 1.96257 953.669 
355 1 253.457 -1.43045 2.13314 957.902 
356 1 253.474 1.86747 -0.862545 936.918 
357 2 253.697 2.30186 2.36408 938.553 
358 2 253.683 -1.42566 -0.743242 946.208 
359 2 250.497 1.75929 -1.16202 943.934 
360 2 250.667 -1.51345 2.02521 948.747 
361 1 256.721 -1.02539 -1.05232 963.85 
362 1 256.329 1.88858 1.94142 948.569 
363 1 259.124 -0.412865 1.9878 949.171 
364 1 259.52 1.63305 -0.7104 952.04 
365 2 259.306 2.04669 2.32221 951.235 
366 2 259.368 -0.971021 -0.946133 929.638 
367 2 256.395 2.16989 -0.733686 945.145 
368 2 256.722 -1.05114 1.79769 959.791 
369 1 261.755 -1.44473 -0.954484 938.319 
370 1 262.151 1.76123 2.18762 937.455 
371 1 265.6 -0.855123 2.18869 940.765 
372 1 265.122 1.40425 -0.583856 942.792 
373 2 265.054 1.89238 1.88619 949.809 
374 2 264.907 -1.36644 -0.419544 934.818 
375 2 262.329 2.4342 -1.12807 947.802 
376 2 261.974 -1.05461 2.36884 940.745 
377 1 268.683 -0.994103 -0.896667 923.454 
378 1 268.415 1.99755 1.79874 948.525 
379 1 271.383 -1.63146 2.59053 936.441 
380 1 271.229 1.96207 -0.865178 944.876 
381 2 271.457 1.01487 2.45437 956.946 
382 2 271.45 -1.13575 -1.00305 934.045 
383 2 268.647 1.90991 -1.20507 948.473 
384 2 268.148 -1.03133 1.82704 921.409 
385 1 273.94 -1.08676 -0.662835 926.928 
386 1 273.859 1.74355 2.56302 931.424 
387 1 276.613 -1.67915 2.28068 910.728 
388 1 276.812 1.94773 -0.745763 908.677 
389 2 276.582 2.18675 2.86972 930.747 
390 2 276.758 -1.28989 -0.880993 913.692 
391 2 274.13 2.127 -0.404934 933.128 
392 2 273.991 -1.46979 1.863 915.273 
393 1 279.265 -1.52486 -0.566228 904.957 
394 1 279.59 1.94282 2.58463 915.069 
395 1 282.427 -1.25694 2.63441 910.309 
396 1 281.799 1.45017 -1.0274 908.737 
397 2 282.238 1.48416 2.82427 921.074 
398 2 282.354 -1.86155 -0.48591 923.996 
399 2 279.31 1.43503 -0.756111 928.155 
400 2 279.684 -1.36227 2.43167 914.284 
401 1 -4.43235 4.8622 -0.178466 892.368 
402 1 -4.10703 8.05991 2.27863 892.75 
403 1 -1.13796 4.30796 3.08651 923.156 
404 1 -1.15622 8.52885 -0.932909 906.536 
405 2 -1.1965 7.96962 2.76751 916.317 
406 2 -1.64302 5.37074 -0.940697 933.372 
407 2 -4.2363 8.27579 -0.608338 908.531 
408 2 -4.07138 4.83425 2.60055 911.496 
409 1 1.38053 5.2795 -0.40398 913.687 
410 1 1.37563 7.61074 2.60275 921.713 
411 1 4.94097 3.92778 2.72169 930.492 
412 1 4.49651 7.58951 -0.436049 920.086 
413 2 4.37504 7.84957 2.45223 924.044 
414 2 4.79748 4.76192 -0.37686 931.711 
415 2 1.69773 7.72611 -0.455003 923.971 
416 2 1.88473 4.62806 2.14787 925.972 
417 1 7.53217 4.09352 -0.469249 928.327 
418 1 6.87713 7.57323 1.88839 946.844 
419 1 9.80357 4.2456 1.88279 937.953 
420 1 9.89801 7.62396 -0.519473 931.501 
421 2 10.3688 7.35382 2.29253 933.113 
422 2 10.0827 4.49152 -0.404368 927.748 
423 2 7.14494 7.72706 -0.549878 905.078 
424 2 7.3946 4.38254 2.30047 930.274 
425 1 13.0009 4.6957 -0.491863 932.157 
426 1 13.1436 7.51132 2.20008 935.97 
427 1 15.9266 4.74771 2.0511 927.619 
428 1 16.3454 7.2468 -1.21621 917.088 
429 2 16.1739 7.80361 1.93446 934.429 
430 2 16.1161 4.74649 -0.958097 938.753 
431 2 13.203 7.30949 -0.429757 944.134 
432 2 13.416 4.43777 2.20682 915.457 
433 1 19.1252 4.22003 -0.754677 968.886 
434 1 18.6903 7.08454 1.90557 956.151 
435 1 21.6572 4.24664 2.30584 947.534 
436 1 22.1323 7.25591 -1.40196 939.178 
437 2 21.6045 6.90184 1.97826 951.474 
438 2 21.672 4.39638 -1.08233 944.74 
439 2 18.9426 7.24956 -0.634138 943.541 
440 2 18.5791 4.51149 2.03393 923.072 
441 1 24.7534 4.01738 -0.675333 958.907 
442 1 24.9064 7.71362 2.00243 958.206 
443 1 27.403 4.4696 2.58955 959.202 
444 1 27.3582 7.66119 -1.76626 948.215 
445 2 27.4058 7.83737 2.14323 946.493 
446 2 26.9346 4.28664 -1.60604 964.272 
447 2 24.8735 7.59011 -1.02527 955.515 
448 2 24.1816 3.82729 1.76374 949.671 
449 1 29.4379 3.81699 -1.03901 969.942 
450 1 30.2124 6.89222 2.23576 929.385 
451 1 33.2859 4.04801 2.367 946.146 
452 1 33.3328 6.93059 -0.385516 948.334 
453 2 33.463 6.67274 2.3996 949.996 
454 2 33.8534 4.68731 -1.31781 957.952 
455 2 30.1082 6.86082 -1.34515 960.527 
456 2 29.9893 4.37694 2.39269 950.533 
457 1 36.335 4.70816 -1.36329 956.134 
458 1 36.1702 6.82344 2.02315 980.887 
459 1 38.4888 4.31388 2.08294 965.01 
460 1 38.9645 7.55532 -0.977493 961.461 
461 2 38.6617 7.15793 2.3421 955.964 
462 2 39.0551 4.6246 -0.790967 949.443 
463 2 36.1052 7.13312 -0.476282 941.675 
464 2 35.8949 3.95729 2.26534 975.232 
465 1 41.8859 4.63142 -0.456271 977.27 
466 1 42.0977 7.78258 1.58215 964.706 
467 1 44.1891 4.36945 2.40267 968.613 
468 1 44.8565 7.72397 -1.33604 963.806 
469 2 44.6418 7.60046 2.09745 965.774 
470 2 44.6828 5.0929 -0.673937 956.956 
471 2 41.8958 7.85343 -1.10443 975.477 
472 2 41.8775 4.82004 2.18491 979.145 
473 1 47.0675 4.67595 -0.260695 977.773 
474 1 47.1805 7.25781 2.03974 980.199 
475 1 50.6853 5.36792 2.55432 971.094 
476 1 50.6655 7.48726 -0.723573 983.959 
477 2 50.0574 8.18001 2.37337 981.474 
478 2 50.2137 4.98198 -0.170563 994.47 
479 2 47.4479 7.66413 -1.02264 962.66 
480 2 47.4726 4.35484 2.75839 972.305 
481 1 52.838 4.75741 -0.660441 981.643 
482 1 53.4573 7.93409 2.16552 996.644 
483 1 56.1664 4.73416 2.1311 1007.95 
484 1 56.0826 7.19297 -0.763123 973.381 
485 2 56.0494 7.84747 2.12324 993.067 
486 2 56.1914 4.66743 -0.969338 983.597 
487 2 53.6043 7.422 -0.437175 1007.96 
488 2 53.1739 5.17605 2.62195 986.789 
489 1 59.257 5.23872 -1.36575 964.665 
490 1 58.6145 7.84255 2.32865 1018.75 
491 1 61.7979 4.56778 2.46515 985.894 
492 1 61.7805 7.36739 -0.521163 979.667 
493 2 61.5485 7.79906 1.98115 999.195 
494 2 61.7425 4.61854 -0.630383 994.377 
495 2 59.253 7.86763 -0.984714 1000.59 
496 2 59.1434 4.76742 2.84056 974.112 
497 1 64.4989 4.75429 -0.897566 1011.23 
498 1 64.8456 7.43213 2.25789 1011.45 
499 1 67.5907 4.93401 2.6658 998.314 
500 1 67.614 7.28753 -0.494786 1013.37 
501 2 67.813 7.60904 2.65106 990.579 
502 2 67.8057 4.6333 -0.879933 1011.12 
503 2 64.6027 7.06949 -0.0817961 995.809 
504 2 64.8237 4.59441 2.8432 999.633 
505 1 70.618 4.18074 -0.124975 995.616 
506 1 70.7016 7.56381 2.04778 1002.18 
507 1 73.8018 5.12355 2.55355 1008.91 
508 1 73.583 7.78772 -0.53599 995.671 
509 2 73.7145 7.65354 2.51669 998.081 
510 2 73.5073 4.89721 -0.652661 1000.9 
511 2 70.358 7.57805 -0.612926 1015.64 
512 2 70.9523 5.00086 2.25082 1012.15 
513 1 76.7085 4.87311 -0.508043 1024.18 
514 1 76.3948 7.93356 2.09775 1023.6 
515 1 79.3821 4.38714 2.42398 1022.66 
516 1 80.0553 7.64294 0.319649 1027.26 
517 2 79.4917 7.8232 2.4827 1016.37 
518 2 79.8496 4.69821 -0.188895 1021.19 
519 2 76.4152 7.8934 -0.419059 1017.16 
520 2 76.676 5.0442 2.61652 1008.06 
521 1 82.3754 4.99516 -0.334318 1018.81 
522 1 82.7877 7.39131 3.27791 1021 
523 1 85.3132 4.59552 2.61682 1009.96 
524 1 85.1364 7.74549 -0.432769 1015.48 
525 2 85.2605 7.19459 2.7313 1021.02 
526 2 85.5097 4.11428 -0.0927115 1019.02 
527 2 82.6149 7.66214 0.12112 1014.18 
528 2 82.7665 4.5751 2.75716 1029.5 
529 1 88.0989 4.97782 -0.797149 1018.28 
530 1 87.7963 8.16085 2.83387 1037.06 
531 1 90.5697 4.92833 2.32939 1034.46 
532 1 90.9392 7.86223 -0.0766105 1031.59 
533 2 90.4125 7.65035 2.59901 1029.68 
534 2 90.9138 5.3204 -0.409106 1031.58 
535 2 88.0524 7.79996 -0.78842 1025.03 
536 2 88.088 4.56591 2.35029 1020.63 
537 1 93.5107 4.79169 -0.338389 1015.64 
538 1 94.0535 7.76224 2.74271 1051.39 
539 1 96.3072 4.49917 2.30352 1042.82 
540 1 97.2366 7.43405 -0.843696 1044.27 
541 2 96.6917 7.19082 2.59655 1038.13 
542 2 96.4973 4.71446 -0.527213 1035.79 
543 2 94.0376 8.00203 -1.12487 1041.96 
544 2 93.3993 4.94126 2.22869 1038.72 
545 1 99.5655 4.24843 -0.650083 1024.85 
546 1 99.351 7.64904 2.59732 1062.87 
547 1 102.416 4.38669 2.34566 1034.29 
548 1 103.135 7.6967 -0.458432 1014.12 
549 2 102.348 7.73883 2.47013 1036.04 
550 2 102.965 4.64888 -0.330955 1033.89 
551 2 100.075 7.98791 -0.555272 1024.92 
552 2 99.555 4.60383 2.07579 1032.68 
553 1 105.887 4.4112 -0.215476 1037.13 
554 1 105.49 7.76 2.62208 1021.76 
555 1 108.591 4.3129 2.51742 1014.89 
556 1 108.566 7.34038 0.222927 1039.65 
557 2 108.493 7.50262 2.64717 1048.31 
558 2 108.903 4.18648 -0.200322 1057.99 
559 2 105.944 8.06387 0.114522 1020.95 
560 2 106.111 4.50679 2.23538 1002.8 
561 1 111.434 4.75563 -0.339052 1047.68 
562 1 111.147 7.72459 3.02372 1020.34 
563 1 114.25 4.58964 2.97837 1046.26 
564 1 113.932 7.06963 -0.181871 1051.82 
565 2 114.188 7.69512 2.85608 1053.68 
566 2 114.221 4.56902 -0.72261 1017.67 
567 2 111.357 7.54269 -0.623772 1028.52 
568 2 111.363 4.90502 2.63286 1039.8 
569 1 117.154 4.9077 -0.139878 1058.84 
570 1 117.207 7.57168 2.69953 1056.72 
571 1 120.42 4.36716 2.32699 1070.94 
572 1 120.564 7.70727 0.0899126 1084.55 
573 2 120.261 7.34331 2.8455 1049.08 
574 2 120.479 4.89177 -0.206528 1059.48 
575 2 117.432 7.75208 -0.503588 1054.62 
576 2 116.933 4.81582 2.34382 1050.9 
577 1 123.335 4.6347 -0.257253 1069.82 
578 1 123.79 7.34067 3.19462 1049.2 
579 1 126.153 4.37011 3.63954 1057.02 
580 1 126.39 7.71724 -0.188559 1056 
581 2 126.368 7.70469 3.04217 1078.54 
582 2 126.255 4.62915 -0.266438 1071.44 
583 2 123.504 7.48369 0.0554821 1073.81 
584 2 123.21 4.37908 2.86431 1074.77 
585 1 129.206 4.73818 0.0216347 1052.07 
586 1 128.867 7.61699 2.64409 1094.55 
587 1 131.959 3.87938 2.97228 1063.58 
588 1 132.175 7.7701 -0.150704 1088.81 
589 2 132.462 8.37667 3.20908 1088.86 
590 2 132.263 4.23989 -0.0415947 1066.86 
591 2 129.362 7.9263 0.395908 1054.23 
592 2 129.095 4.18767 3.21564 1067.21 
593 1 135.081 4.49203 -0.0679897 1078.88 
594 1 134.522 7.38522 2.47523 1094.82 
595 1 137.76 4.27479 2.85978 1083.25 
596 1 137.652 7.13727 -0.18969 1088.04 
597 2 137.254 7.09041 3.13244 1079.79 
598 2 137.624 4.09915 0.328307 1093.95 
599 2 134.855 7.3807 -0.617773 1100.86 
600 2 134.811 3.89128 2.54233 1079.94 
601 1 140.191 4.36554 -0.487291 1093.3 
602 1 140.306 7.44933 2.4619 1102.52 
603 1 143.378 4.57705 2.7879 1084.04 
604 1 143.16 7.45901 -0.333247 1113.75 
605 2 143.67 7.87981 2.28515 1109.87 
606 2 143.116 4.75902 -0.577461 1098.98 
607 2 140.284 7.47358 -0.142215 1088.04 
608 2 140.866 4.90794 2.30082 1092.47 
609 1 146.882 4.89801 -0.306567 1086.93 
610 1 146.56 7.02771 2.69731 1091.36 
611 1 149.307 4.3389 3.03247 1101.28 
612 1 149.897 7.25643 0.0323658 1096.56 
613 2 149.459 7.24258 2.40909 1098.12 
614 2 149.214 4.2979 0.121095 1098.92 
615 2 146.532 7.26037 -0.166072 1078.38 
616 2 146.609 4.69303 3.32253 1103.27 
617 1 152.122 4.57483 -0.151963 1064.02 
618 1 152.381 7.66776 3.03978 1092.22 
619 1 155.258 4.72038 2.52598 1099.43 
620 1 155.115 7.65778 -0.332576 1088.7 
621 2 154.973 7.66849 3.41638 1084.49 
622 2 155.213 4.47675 0.170434 1063.94 
623 2 152.793 7.35586 -0.150456 1059.42 
624 2 151.966 5.13055 3.12846 1074.62 
625 1 158.492 5.04468 0.237136 1086.38 
626 1 157.914 7.8276 3.18307 1084.34 
627 1 161.185 4.55709 3.06006 1071.6 
628 1 161.169 7.2779 -0.630179 1079.64 
629 2 161.188 7.68462 2.64372 1075.56 
630 2 161.103 4.79268 -0.155715 1092.44 
631 2 157.899 7.50976 -0.151426 1113.94 
632 2 158.784 4.94868 2.67471 1081.9 
633 1 163.774 4.49824 -0.328608 1059.09 
634 1 163.794 7.43014 2.68891 1066.34 
635 1 166.879 4.97494 2.94839 1051.35 
636 1 166.73 7.23511 -0.730435 1052.3 
637 2 166.737 7.50675 2.68724 1036.79 
638 2 166.485 4.4899 -1.09886 1046.9 
639 2 164.206 7.54174 -0.073489 1076.82 
640 2 163.971 4.64579 2.56952 1090.05 
641 1 169.376 4.88624 -0.12724 1053.43 
642 1 169.578 7.88484 2.75815 1054.17 
643 1 172.305 5.15869 2.0116 1050.91 
644 1 172.625 7.48544 -0.505497 1050.07 
645 2 172.691 7.61393 2.91553 1032.12 
646 2 172.681 4.66584 -0.471066 1029.39 
647 2 169.896 7.56139 -0.0434009 1042.29 
648 2 169.334 5.13964 2.45624 1071.31 
649 1 176.106 4.47273 0.0048414 1036.41 
650 1 176.216 7.09362 2.94116 1047.31 
651 1 178.776 4.16315 2.74951 1034.49 
652 1 178.696 7.93802 0.0149721 1040.33 
653 2 178.892 7.60898 2.77318 1049.16 
654 2 178.914 3.93963 0.0603221 1063.47 
655 2 175.263 7.56467 -0.310085 1055.52 
656 2 176.027 4.41465 2.63398 1065.93 
657 1 181.29 4.45737 -0.696059 1045.51 
658 1 181.482 7.35778 2.50763 1023.25 
659 1 184.292 4.60985 2.73502 1025.26 
660 1 184.385 7.46788 -0.679072 1011.99 
661 2 184.535 7.44206 2.57704 1043.93 
662 2 183.981 4.56407 -0.485181 998.475 
663 2 181.645 7.89288 -0.263231 1052.9 
664 2 181.671 4.34665 2.93973 1049.94 
665 1 187.397 4.73667 0.0751565 1012.57 
666 1 187.266 8.01249 2.78441 1041.25 
667 1 189.91 4.47374 2.97687 1025.92 
668 1 190.076 7.59913 -0.0674084 1010.49 
669 2 189.795 7.34834 2.91165 1024.97 
670 2 189.927 4.43992 -0.324277 1046.12 
671 2 187.227 7.73158 -0.111288 1023.66 
672 2 187.4 4.2343 3.07519 1025.82 
673 1 193.312 4.65622 -0.573954 1023.1 
674 1 193.196 7.35978 2.83192 1032.98 
675 1 195.664 4.53108 2.63072 1017.94 
676 1 196.453 7.59002 -0.41955 1023.67 
677 2 195.606 7.32359 2.7017 1027.1 
678 2 196.251 4.74957 -0.779759 989.955 
679 2 192.544 7.19786 -0.195145 1020.89 
680 2 192.899 4.84823 2.93084 1030.56 
681 1 198.942 4.59638 -0.0221146 1003.21 
682 1 199.057 7.54228 2.68996 1012.3 
683 1 201.4 4.17875 2.85042 1010.36 
684 1 201.594 7.99939 0.0560527 1023.96 
685 2 201.815 7.7567 2.81033 1034.76 
686 2 201.882 5.25584 -0.207078 1013.33 
687 2 199.014 7.41779 -0.350703 1014.31 
688 2 198.355 4.71027 2.88887 1011.99 
689 1 204.181 4.80451 -0.101556 1005.06 
690 1 204.376 7.54968 3.08554 998.599 
691 1 207.275 5.11586 2.35753 981.378 
692 1 207.353 7.84952 -0.665168 990.056 
693 2 207.401 7.7407 2.63088 1012.5 
694 2 207.431 4.7585 -0.235803 998.336 
695 2 204.515 8.42288 -0.645174 1016.99 
696 2 204.62 5.02138 2.86099 1005.25 
697 1 209.958 4.80671 -0.586711 995.373 
698 1 210.278 7.72028 2.64737 1003.91 
699 1 213.296 4.45572 3.01256 989.846 
700 1 212.933 7.37799 -0.0227833 1005.13 
701 2 213.346 8.05644 2.64043 1001.78 
702 2 213.084 4.75029 -0.197335 985.673 
703 2 210.046 7.62263 -0.723139 1015.26 
704 2 210.294 4.85392 2.54182 1010.64 
705 1 215.81 4.89311 -0.133001 990.739 
706 1 216.158 7.84509 2.54591 1016.14 
707 1 218.517 4.92418 2.53352 1010.15 
708 1 218.788 8.16923 -0.57497 985.018 
709 2 218.775 7.83155 2.34401 1000.81 
710 2 219.08 5.15763 -0.134452 979.69 
711 2 215.946 7.38903 -0.836859 999.608 
712 2 215.894 5.25997 2.95428 998.062 
713 1 221.884 5.01907 -0.636138 1002.31 
714 1 221.793 8.06886 2.49824 979.334 
715 1 225.182 5.0635 2.12219 989.636 
716 1 224.614 7.93815 -0.943946 970.082 
717 2 224.681 8.05148 2.53303 976.65 
718 2 224.653 5.29133 -0.865155 982.43 
719 2 221.817 8.10901 -0.446171 996.128 
720 2 221.986 4.72831 2.45762 998.147 
721 1 227.618 5.21156 -0.844805 967.739 
722 1 227.371 8.8022 2.837 995.919 
723 1 230.206 4.73468 2.58672 982.04 
724 1 230.008 8.05215 -0.226508 969.979 
725 2 229.811 7.68669 2.25631 991.004 
726 2 230.501 4.61677 -0.715995 985.864 
727 2 227.379 7.78298 -0.694821 961.718 
728 2 227.668 4.37882 2.74057 989.166 
729 1 233.265 4.88269 -0.432333 972.403 
730 1 233.004 7.42613 2.18396 950.64 