ITEM: TIMESTEP
6500000
ITEM: NUMBER OF ATOMS
8400
ITEM: BOX BOUNDS pp pp pp
-5.9099547646241319e+00 2.8359995476463484e+02
-2.1446273254920634e+00 4.0174627325491812e+01
-1.7757301867509554e+00 1.6325730186751606e+01
ITEM: ATOMS id type x y z f_TolTpA 
1 1 -4.12719 -1.31174 -0.778517 915.288 
2 1 -4.29503 2.11921 2.69479 885.6 
3 1 -1.69191 -0.946468 2.63811 898.179 
4 1 -1.50046 1.66827 -0.646324 909.569 
5 2 -1.31827 1.85504 2.70987 911.133 
6 2 -1.36959 -1.32512 -0.627944 898.093 
7 2 -3.89381 1.70655 -0.0501936 931.012 
8 2 -4.32941 -1.76561 2.72863 918.037 
9 1 1.55107 -1.07267 -0.912925 926.049 
10 1 1.29543 1.50012 2.21775 923.736 
11 1 4.0692 -1.13873 1.66345 916.565 
12 1 4.5455 2.08503 -0.881431 911.844 
13 2 4.76283 1.67177 2.68644 924.633 
14 2 4.63282 -0.667939 -0.652368 930.618 
15 2 2.05596 1.12706 -0.288414 929.508 
16 2 1.70435 -1.39146 2.72181 883.625 
17 1 7.40798 -1.0967 -0.575885 917.314 
18 1 7.39179 1.53378 3.2302 896.141 
19 1 10.2768 -1.54573 2.68117 916.733 
20 1 10.8692 1.19921 -0.631441 924.099 
21 2 10.1986 1.54739 2.50457 934.613 
22 2 10.465 -1.55422 -0.792421 933.587 
23 2 7.21851 1.99946 -0.00715053 900.021 
24 2 7.38938 -1.06534 2.63159 924.41 
25 1 12.9753 -1.574 -0.831114 929.099 
26 1 13.1467 1.6316 2.25422 931.008 
27 1 15.8571 -1.00781 2.42537 934.914 
28 1 16.1679 2.03595 -0.841258 940.965 
29 2 16.2144 1.8127 2.42718 924.861 
30 2 16.2781 -1.26218 -0.672054 938.027 
31 2 13.1813 1.9628 -0.292119 943.527 
32 2 13.2586 -1.31862 2.32545 937.007 
33 1 18.665 -0.815095 -0.0602347 925.882 
34 1 18.8665 2.72521 2.72398 916.274 
35 1 21.4992 -1.77876 3.00669 969.794 
36 1 21.3849 1.00564 -1.0552 940.561 
37 2 21.5032 1.48984 2.41396 910.87 
38 2 21.7474 -1.73727 -0.685275 940.569 
39 2 18.8008 1.95448 -0.511367 929.222 
40 2 18.7375 -1.38115 2.3556 922.575 
41 1 24.7248 -0.865565 -0.57266 924.066 
42 1 23.9603 1.53124 2.2938 929.78 
43 1 27.546 -1.59464 2.60608 943.662 
44 1 27.995 1.41162 -0.113711 952.613 
45 2 27.2964 1.3373 2.36915 930.236 
46 2 27.3086 -1.78527 -0.501289 927.67 
47 2 24.0171 2.07773 -0.367538 928.815 
48 2 24.161 -1.26631 2.29367 936.853 
49 1 30.4483 -1.87152 -1.17865 942.094 
50 1 30.3314 1.50329 2.89111 946.541 
51 1 32.7756 -1.41362 2.55521 930.466 
52 1 33.185 1.51248 -0.219284 954.12 
53 2 33.1719 1.59906 2.88242 966.886 
54 2 32.7936 -1.68871 -0.672606 949.007 
55 2 30.3747 1.50769 -0.638628 958.881 
56 2 30.4147 -1.26006 2.51407 943.521 
57 1 36.3711 -1.84274 -0.393639 959.758 
58 1 35.9318 1.94537 2.5664 956.839 
59 1 39.0611 -1.27062 3.04628 941.789 
60 1 39.2219 1.47683 -0.221724 950.825 
61 2 39.2595 1.79713 2.68512 960.058 
62 2 39.1089 -2.10816 -0.50274 943.16 
63 2 36.3453 1.38132 -0.220872 956.554 
64 2 36.4379 -1.24609 2.55185 924.168 
65 1 41.6374 -1.62056 -0.273554 977.335 
66 1 41.9449 1.65067 2.55727 973.319 
67 1 45.3142 -1.79773 1.84372 953.967 
68 1 44.6766 1.68584 -0.816349 962.684 
69 2 45.0585 1.5398 2.57243 969.464 
70 2 44.3765 -1.63265 -0.477342 955.686 
71 2 41.7851 1.85148 -0.490393 964.155 
72 2 41.37 -1.70345 2.46717 974.801 
73 1 48.2724 40.1422 -0.134551 965.878 
74 1 48.1823 1.3337 2.19678 958.942 
75 1 50.8973 -1.97628 2.50396 950.64 
76 1 50.9927 2.22822 -0.385314 951.812 
77 2 50.6341 1.76444 2.60316 960.205 
78 2 50.8679 -2.05769 -0.144793 973.587 
79 2 47.6637 1.53595 -0.36594 951.512 
80 2 48.3621 -1.6694 2.43179 977.604 
81 1 53.3831 39.9372 0.0913661 955.507 
82 1 53.5476 1.61318 2.6004 960.635 
83 1 56.737 -2.02425 2.96005 953.46 
84 1 56.851 1.14457 -0.404817 985.835 
85 2 57.1265 0.964392 2.66148 972.695 
86 2 56.7838 -1.9567 -1.01512 963.141 
87 2 53.4049 0.879449 -0.164682 965.406 
88 2 54.1113 -2.00138 2.71812 972.162 
89 1 59.5258 40.0396 -1.16307 987.27 
90 1 59.5467 0.486476 2.95931 977.763 
91 1 62.461 -1.82857 2.95528 986.672 
92 1 61.9043 0.944021 -0.508692 986.657 
93 2 62.3594 0.804066 2.57631 965.294 
94 2 62.009 -1.82751 -0.762578 993.304 
95 2 59.1618 1.52142 -1.41833 958.605 
96 2 59.4947 -2.05309 2.74817 981.113 
97 1 64.78 -2.05708 -0.462031 980.555 
98 1 65.3075 1.05685 2.5596 971.761 
99 1 67.8844 -1.2921 2.27832 1001.24 
100 1 67.7295 0.850603 -0.980257 981.144 
101 2 67.9495 1.21105 2.82039 988.82 
102 2 67.9645 -1.84918 -0.344889 981.684 
103 2 64.6682 0.922639 -0.534408 982.983 
104 2 65.1818 -2.14047 2.8903 995.45 
105 1 70.4828 -1.70299 -0.202892 982.928 
106 1 70.8786 1.82326 2.39509 1013.1 
107 1 73.4423 -1.50603 2.15806 974.092 
108 1 73.7148 2.19251 -0.236198 981.525 
109 2 73.738 1.13285 2.5674 986.241 
110 2 73.5498 -1.79799 -0.387723 1028.32 
111 2 70.442 1.27692 -0.430954 978.861 
112 2 70.9237 -1.34905 2.34223 977.694 
113 1 76.9576 -2.13023 -0.29556 978.499 
114 1 76.941 2.06049 2.4919 999.997 
115 1 79.5812 -1.43447 2.85259 1006.37 
116 1 79.5125 1.12145 -0.75143 1012.12 
117 2 79.8526 1.49833 2.89709 1007.52 
118 2 79.4998 -1.65021 -0.596954 1004.75 
119 2 76.6668 1.48919 -0.16506 979.469 
120 2 76.906 -1.75236 2.12984 1008.24 
121 1 82.0566 -1.09584 -0.178449 1026.25 
122 1 82.7404 1.747 2.46033 1015.05 
123 1 85.1392 -1.35988 2.89335 1017.32 
124 1 85.2152 1.42921 -0.528347 1024.74 
125 2 85.6415 1.27912 2.32593 985.004 
126 2 85.3305 -1.50731 -0.992241 1029.4 
127 2 82.4317 1.36761 -0.270586 990.681 
128 2 82.6345 -1.08139 2.6497 995.98 
129 1 87.8795 -1.92874 0.00983751 1010.69 
130 1 88.4939 1.31388 2.42646 1012.92 
131 1 91.4323 -1.94724 2.15739 1017.72 
132 1 91.596 1.10956 -0.383791 1027.53 
133 2 91.3634 1.37995 2.61721 1013.51 
134 2 90.8011 -1.77554 -0.340371 1027.93 
135 2 88.247 1.68103 -0.0421624 1013.24 
136 2 88.261 -1.7852 2.72317 1023.33 
137 1 94.6412 -2.07143 -0.232234 1012.64 
138 1 93.979 1.45239 2.63357 1023.25 
139 1 97.2043 -1.48059 2.40172 1023.1 
140 1 96.9724 1.5188 0.0333405 1017.16 
141 2 97.2437 1.11558 3.05918 1039.55 
142 2 97.4528 -1.00814 -0.213923 1017.01 
143 2 94.4869 1.04225 -0.0772871 1012.3 
144 2 94.2125 -1.46725 2.46512 1001.45 
145 1 100.098 -1.36217 -0.47626 1021.52 
146 1 100.315 1.47848 2.27064 1026.63 
147 1 103.204 -1.72334 2.20979 1051.68 
148 1 102.814 1.86813 -1.01079 1031.09 
149 2 103.277 1.33052 2.45789 1040.76 
150 2 102.851 -0.906522 -0.717099 1041.52 
151 2 99.9942 1.73708 -0.624823 1044.89 
152 2 100.443 -1.96941 2.27249 1018.95 
153 1 105.479 -0.934854 -0.883847 1027.84 
154 1 106.045 0.700272 2.91894 1039.76 
155 1 108.498 -1.92676 3.0408 1047.12 
156 1 107.903 1.34247 -0.390092 1040.37 
157 2 108.383 2.37312 2.66944 1050.69 
158 2 108.046 -1.32119 -0.941987 1037.2 
159 2 105.395 1.74783 -0.780349 1054.04 
160 2 105.895 -1.52769 2.28999 1023.21 
161 1 111.418 -1.67225 -0.339064 1062.65 
162 1 111.392 1.9166 2.63673 1031.27 
163 1 114.347 -1.27473 2.69412 1080.44 
164 1 114.402 1.00942 -0.934289 1048.48 
165 2 113.91 1.46945 2.72419 1047.13 
166 2 113.865 -1.4862 -0.965684 1060.04 
167 2 111.8 1.79578 -0.357283 1050.07 
168 2 111.373 -1.88085 2.66992 1044.14 
169 1 117.682 -1.31071 -0.49645 1072.4 
170 1 117.503 1.82576 2.33003 1048.52 
171 1 120.693 -1.46079 2.6912 1062.35 
172 1 120.295 2.17691 -0.560168 1061.73 
173 2 120.366 1.99932 2.24791 1056.09 
174 2 120.5 -0.927387 -0.244633 1071.19 
175 2 117.062 2.20673 -0.358776 1061.56 
176 2 117.516 -0.967837 2.43761 1057.72 
177 1 123.517 -0.760546 -0.780756 1069.95 
178 1 123.125 2.16416 2.26601 1053.74 
179 1 126.044 -1.05323 2.77992 1062.73 
180 1 126.047 1.86351 -0.514475 1075.85 
181 2 125.847 1.95378 2.40688 1068.81 
182 2 126.382 -0.755374 -0.48149 1052.57 
183 2 123.152 1.82727 -0.355008 1056.11 
184 2 123.136 -1.35916 2.59622 1062.44 
185 1 128.898 -1.08142 0.240694 1084.14 
186 1 128.47 1.52592 3.22693 1062.96 
187 1 131.985 -1.12013 2.18316 1088.08 
188 1 131.852 2.1711 -0.342242 1068.8 
189 2 131.79 1.55441 2.84764 1054.85 
190 2 131.992 -0.819844 -0.16678 1077.13 
191 2 128.992 1.82201 -0.331234 1071.56 
192 2 128.397 -1.43948 3.37338 1077.07 
193 1 134.255 -0.566212 -0.738286 1096.93 
194 1 134.653 2.10625 2.63811 1096.9 
195 1 137.562 -1.02036 2.75552 1099.05 
196 1 138.141 2.37933 -0.449434 1092.3 
197 2 137.989 2.20455 2.01501 1105.38 
198 2 138.168 -1.51974 -0.257287 1064.41 
199 2 134.655 2.62287 0.0088406 1096.88 
200 2 134.886 -1.12304 2.95663 1087.64 
201 1 140.677 -0.708223 -0.231551 1086.63 
202 1 140.671 2.34078 2.3114 1083.55 
203 1 143.687 -1.10061 2.63394 1110.39 
204 1 144.169 1.85512 -0.244253 1094.7 
205 2 143.708 2.20036 2.47017 1092.59 
206 2 143.944 -1.09079 -0.301384 1086.74 
207 2 140.458 2.35751 -0.839797 1098.11 
208 2 140.462 -0.739973 2.59766 1117.51 
209 1 146.647 -1.63926 -0.427046 1121.15 
210 1 146.457 2.26888 2.38004 1080.94 
211 1 149.877 -1.21484 2.27074 1060.33 
212 1 149.331 1.3949 -0.72886 1092.84 
213 2 150.153 1.65973 2.21847 1084.24 
214 2 149.65 -1.33834 -0.51509 1091.96 
215 2 146.99 2.21479 -0.255995 1101.24 
216 2 147.055 -1.18507 2.50843 1092.81 
217 1 152.564 -1.08893 -0.740338 1084.72 
218 1 152.544 2.5777 2.90253 1083.33 
219 1 155.548 -1.00831 2.37845 1075.67 
220 1 155.389 1.43369 -0.780512 1079.05 
221 2 155.185 2.07926 2.81881 1083.03 
222 2 155.865 -1.34233 -0.388187 1093.7 
223 2 152.954 1.64391 -0.766156 1087.62 
224 2 152.474 -1.33807 2.56392 1091.76 
225 1 158.322 -1.39048 -0.296092 1074.7 
226 1 158.291 1.92608 2.71978 1054.83 
227 1 161.209 -0.557191 1.94371 1074.64 
228 1 161.016 2.136 -0.856154 1070.79 
229 2 161.495 2.13727 2.27502 1075.2 
230 2 161.128 -1.23653 -0.396482 1077.53 
231 2 158.11 1.89377 -0.380016 1079.62 
232 2 158.505 -0.766786 2.31591 1077.11 
233 1 164.419 -1.42011 -0.665113 1071.22 
234 1 163.928 1.47215 1.91079 1067.68 
235 1 166.648 -0.362136 2.28581 1072.41 
236 1 166.787 1.74334 -0.718292 1063.44 
237 2 166.758 2.19089 2.31492 1047.95 
238 2 166.908 -0.973694 -0.29095 1072.37 
239 2 163.894 2.06716 -0.95893 1070.96 
240 2 163.942 -1.03843 1.89922 1090.38 
241 1 169.836 -0.879183 -0.393211 1073.2 
242 1 169.524 1.92659 2.61461 1075.51 
243 1 172.298 -0.730757 2.13702 1067.11 
244 1 172.628 2.03672 -0.889122 1047.85 
245 2 172.063 2.09121 1.65759 1056.76 
246 2 172.996 -0.755771 -1.10767 1049.55 
247 2 169.915 1.41624 -0.844686 1052.67 
248 2 169.464 -0.561219 3.01691 1062.88 
249 1 175.685 -0.712717 -0.616179 1051.77 
250 1 174.767 2.41098 2.66101 1058 
251 1 178.674 -1.00075 1.8256 1041.13 
252 1 178.397 1.85437 -0.279112 1069.18 
253 2 178.878 1.56059 2.61184 1056.46 
254 2 178.234 -1.31325 -0.764254 1038.19 
255 2 175.415 1.96992 -1.13747 1056.98 
256 2 175.146 -1.11702 2.60809 1043.48 
257 1 181.046 -0.53419 -0.887665 1055.41 
258 1 181.282 2.19712 2.41049 1032.62 
259 1 183.973 -1.60211 2.14014 1049.44 
260 1 184.017 1.99567 -0.887406 1029.02 
261 2 183.843 2.25263 2.34509 1049.92 
262 2 183.985 -1.43496 -0.248744 1053.76 
263 2 180.925 2.09415 -0.340348 1039.56 
264 2 180.954 -1.59981 2.93683 1053.99 
265 1 186.883 -0.709931 -0.214457 1047.88 
266 1 187.2 2.65024 3.04825 1069.39 
267 1 190.119 -2.13146 2.73011 1037.13 
268 1 189.956 1.86882 -0.529239 1026.55 
269 2 189.851 2.33074 2.90531 1060.22 
270 2 189.826 -1.19521 -0.386514 1017.36 
271 2 186.774 1.79577 -0.421863 1048.49 
272 2 187.163 -1.43021 2.29617 1038.1 
273 1 192.393 -0.905943 -0.497965 1037.96 
274 1 192.644 1.70647 2.77971 1048.21 
275 1 195.816 -1.47677 2.85708 1021.72 
276 1 195.443 1.63447 0.166436 1010.43 
277 2 195.444 1.38931 3.13494 1031.66 
278 2 195.438 -1.27003 -0.646117 1036.31 
279 2 192.603 1.82422 -0.602595 1039.84 
280 2 192.882 -1.80269 2.39646 1048.66 
281 1 198.595 -1.12505 0.0282807 1046.31 
282 1 198.267 1.8258 3.08366 1026.19 
283 1 201.223 -1.28464 3.16771 1026.82 
284 1 201.66 1.74466 -0.0457399 1039.47 
285 2 201.579 1.46504 3.41258 1023.91 
286 2 201.469 -1.28967 -0.121944 1004.8 
287 2 198.234 1.54567 -0.148292 1021.63 
288 2 198.518 -1.18469 3.13281 1014.15 
289 1 204.097 -1.80859 -0.0359876 1023.13 
290 1 204.706 1.13352 2.32421 1016.88 
291 1 207.382 -1.39248 2.85329 1027 
292 1 207.348 1.54148 0.00423127 1039.98 
293 2 207.363 1.76438 2.80126 1013.99 
294 2 207.573 -1.3383 0.138382 1025.72 
295 2 204.267 1.59296 -0.302854 1020.99 
296 2 204.352 -1.44534 2.7329 1015.06 
297 1 210.533 -1.4602 -0.291904 1010.43 
298 1 209.989 1.31136 2.59627 1005.66 
299 1 213.27 -1.91936 2.78847 1044.02 
300 1 212.882 1.38203 -0.86883 997.05 
301 2 212.885 1.63385 3.03423 1000.96 
302 2 213.07 -1.20199 0.0635888 993.088 
303 2 210.317 1.57188 -0.268401 1016.84 
304 2 210.175 -1.75611 2.9436 1036.87 
305 1 215.954 -1.48873 -0.853332 988.207 
306 1 215.576 1.51022 2.80169 1013.8 
307 1 218.181 -1.73198 2.15107 1000.77 
308 1 218.841 1.55722 -0.020448 1022.43 
309 2 218.516 1.26797 2.71705 991.191 
310 2 218.471 -1.09174 -0.464903 1002.66 
311 2 215.469 1.56048 -0.669392 1011.51 
312 2 215.919 -1.77008 3.06301 1008.73 
313 1 221.968 -1.15174 -0.285681 979.65 
314 1 221.805 1.09153 2.70642 984.293 
315 1 224.784 -1.68168 2.24957 980.989 
316 1 224.136 2.04515 -0.631492 989.148 
317 2 224.895 1.11073 2.66154 995.729 
318 2 224.499 -1.27115 -0.866253 964.084 
319 2 221.602 1.47202 -0.126842 995.099 
320 2 222.246 -1.71471 2.30384 976.912 
321 1 227.394 -1.04229 -0.430014 982.205 
322 1 227.158 2.62999 2.9585 969.865 
323 1 229.64 -0.956508 2.27977 971.313 
324 1 230.432 1.78212 -0.546874 981.325 
325 2 230.059 1.64351 2.35065 942.893 
326 2 230.26 -0.771495 -0.746606 971.687 
327 2 227.667 2.18125 -0.731797 983.065 
328 2 227.198 -1.73578 2.29757 1002.4 
329 1 232.79 -1.49473 -0.150992 973.442 
330 1 233.836 1.71247 2.65122 984.025 
331 1 236.4 -1.04182 2.2495 972.12 
332 1 237.018 1.54409 -0.817678 984.374 
333 2 236.416 1.82019 2.13773 959.836 
334 2 236.668 -1.36337 -0.137157 960.39 
335 2 233.293 1.71524 -0.805912 980.214 
336 2 233.205 -1.07996 2.40373 983.922 
337 1 239.429 -1.36162 -0.313251 980.326 
338 1 239.749 2.05913 2.69731 960.935 
339 1 241.781 -1.32084 2.59274 970.29 
340 1 242.329 2.14472 -0.831267 996.92 
341 2 242.242 1.96458 2.18928 992.772 
342 2 241.814 -1.37579 -0.74865 985.819 
343 2 239.569 1.53822 -0.455342 966.307 
344 2 239.048 -1.36506 3.09747 969.483 
345 1 244.22 -1.21651 -0.296585 971.892 
346 1 245.245 1.64208 1.75156 961.665 
347 1 247.961 -1.27649 2.29333 956.957 
348 1 248.102 1.57928 -1.02035 946.631 
349 2 247.54 1.58864 1.72113 958.42 
350 2 248.169 -1.05829 -0.935272 946.863 
351 2 244.678 1.40993 -0.685524 987.56 
352 2 244.645 -1.45101 2.21838 953.216 
353 1 250.831 -1.59205 -1.24075 936.929 
354 1 250.7 1.89198 2.28738 970.441 
355 1 253.722 -1.81317 1.4382 942.679 
356 1 253.8 1.14945 -0.84018 955.883 
357 2 253.657 1.88749 2.27284 959.654 
358 2 253.869 -1.40575 -1.6213 932.531 
359 2 251.237 1.32773 -0.678945 957.502 
360 2 251.016 -1.55866 2.33376 958.222 
361 1 256.372 -1.26842 -1.06856 962.7 
362 1 256.102 2.12776 2.87612 955.615 
363 1 259.036 -1.43847 2.67031 949.364 
364 1 259.507 1.90166 -1.18175 950.298 
365 2 258.969 1.61629 1.99218 928.616 
366 2 259.148 -1.38106 -1.19721 927.356 
367 2 256.235 1.52377 -1.256 950.822 
368 2 256.225 -1.79871 1.68801 936.653 
369 1 261.902 -1.69306 -0.42509 913.222 
370 1 262.143 1.23779 2.40547 925.418 
371 1 264.889 -1.33203 2.32349 926.325 
372 1 264.738 1.05086 -0.476149 933.839 
373 2 265.099 1.54963 2.11984 937.158 
374 2 265.137 -1.69764 -0.335884 946.709 
375 2 262.352 1.18257 -0.643718 928.757 
376 2 262.276 -1.56672 1.96362 920.632 
377 1 268.023 -1.65683 -1.03811 922.823 
378 1 267.861 1.75115 1.9512 954.034 
379 1 270.825 -1.64991 1.91562 911.543 
380 1 270.98 1.22203 -0.800986 919.445 
381 2 270.197 1.17425 2.25747 922.8 
382 2 271.02 -1.73956 -1.43862 930.147 
383 2 268.074 1.88711 -0.315232 925.575 
384 2 268.087 -1.67035 2.53541 928.475 
385 1 273.82 -1.5417 -1.0325 924.98 
386 1 273.186 1.51664 2.31993 928.038 
387 1 276.476 -0.983879 1.58232 910.156 
388 1 276.733 1.77865 -1.17103 916.901 
389 2 276.827 1.76802 1.78284 907.752 
390 2 276.504 -1.47273 -0.929469 918.527 
391 2 273.692 1.621 -0.843369 926.834 
392 2 273.515 -1.83392 2.15571 906.054 
393 1 279.042 -1.65951 -0.856385 912.281 
394 1 279.664 1.99141 2.31431 902.514 
395 1 282.744 -1.00501 2.34551 921.88 
396 1 282.53 1.63549 -0.421395 909.524 
397 2 282.915 1.41712 2.42205 907.181 
398 2 282.679 -1.15308 -0.430496 919.457 
399 2 279.674 1.48713 -0.688662 912.55 
400 2 279.243 -0.993571 2.02437 923.675 
401 1 -3.86258 4.87135 -0.515294 912.012 
402 1 -3.73004 7.55123 2.50492 895.155 
403 1 -1.5294 4.64676 2.23926 894.452 
404 1 -0.895988 7.92521 -0.324825 885.37 
405 2 -1.08261 7.55945 2.92445 915.91 
406 2 -0.817352 4.23155 -0.463297 899.274 
407 2 -3.77413 7.74345 -0.560482 897.677 
408 2 -4.39208 5.18956 2.09975 912.559 
409 1 1.52503 4.6597 -0.148373 916.013 
410 1 1.40452 7.84493 2.89558 892.953 
411 1 4.63079 4.45404 2.72214 902.041 
412 1 4.22263 7.41292 -0.497841 912.002 
413 2 4.3843 7.44414 2.77951 913.588 
414 2 4.65899 4.7326 -0.864602 899.591 
415 2 1.81607 8.11986 0.346861 918.331 
416 2 1.59768 4.08861 2.63736 919.944 
417 1 7.21307 4.75757 -0.55218 912.136 
418 1 6.96652 7.76421 2.37932 910.375 
419 1 10.1142 4.15647 2.53458 918.357 
420 1 10.2553 7.8553 -0.227117 948.565 
421 2 9.82522 8.5259 2.67871 910.445 
422 2 10.2008 4.57944 -0.160196 930.96 
423 2 7.70954 7.9324 -0.735527 938.239 
424 2 7.28361 4.98308 2.63828 903.471 
425 1 12.8308 4.59955 -0.704604 918.294 
426 1 12.3667 7.79058 2.44043 927.065 
427 1 15.8585 5.17794 2.47596 919.161 
428 1 15.9041 7.60096 -0.291502 927.445 
429 2 15.8073 7.88084 2.78778 916.508 
430 2 16.0006 4.92427 -0.985007 918.525 
431 2 12.8888 7.70349 -0.597492 949.174 
432 2 12.922 5.14282 2.47314 942.341 
433 1 18.9672 4.75777 -0.521002 926.927 
434 1 19.0541 7.94304 2.67064 941.944 
435 1 21.3185 4.919 2.31683 940.379 
436 1 21.596 8.12942 -0.670655 942.856 
437 2 21.7225 8.06219 2.56611 930.238 
438 2 21.6893 5.75978 -0.421464 933.933 
439 2 18.5242 7.74049 -0.196249 909.514 
440 2 18.7407 5.31611 2.41349 937.97 
441 1 24.8214 4.89704 -0.495584 926.403 
442 1 24.6273 7.68762 2.61106 956.678 
443 1 27.0066 4.79194 2.76928 936.118 
444 1 27.9691 7.71798 -0.201445 943.149 
445 2 27.9774 7.8926 2.58568 928.649 
446 2 27.311 5.13144 0.0950332 938.733 
447 2 24.9844 8.01292 -0.342763 924.9 
448 2 24.6273 4.65359 2.67418 922.947 
449 1 30.5065 4.33178 -0.244597 925.266 
450 1 30.798 7.80266 3.02178 961.867 
451 1 33.5776 4.88519 2.8243 931.848 
452 1 33.3031 7.89371 0.140467 927.613 
453 2 33.4983 7.51803 2.62985 956.73 
454 2 33.4815 4.50115 -0.403794 934.503 
455 2 30.8843 7.33685 0.00592829 943.531 
456 2 30.4639 4.45676 2.70123 940.227 
457 1 36.4349 3.98944 -0.959873 957.027 
458 1 36.275 7.12398 2.938 959.297 
459 1 39.2993 4.70841 2.60768 938.391 
460 1 38.691 7.19942 -0.282535 974.637 
461 2 39.0218 7.34825 2.85924 961.291 
462 2 38.7607 4.58986 -0.825862 952.223 
463 2 36.3359 7.70809 -0.23507 947.437 
464 2 36.1901 4.54267 2.5449 966.762 
465 1 41.7732 4.66637 -0.810694 980.817 
466 1 42.055 7.23982 2.73786 961.411 
467 1 44.9725 5.04508 2.15578 988.325 
468 1 44.6346 7.8685 0.0949237 966.787 
469 2 45.1921 8.04977 2.81188 978.029 
470 2 44.5874 4.32503 -0.388555 958.487 
471 2 41.8334 7.46029 0.330221 938.981 
472 2 42.0391 4.53084 2.54306 965.569 
473 1 47.2682 4.60764 -0.362899 957.436 
474 1 47.6844 8.21649 2.53283 978.064 
475 1 50.4268 4.27173 2.64586 942.576 
476 1 50.4546 6.9794 0.135361 960.703 
477 2 50.6103 7.73859 2.44573 972.282 
478 2 50.4106 4.44966 -0.210203 974.83 
479 2 47.4192 7.38599 -0.0895058 965.524 
480 2 47.7557 4.56773 2.36453 980.373 
481 1 53.5687 4.63632 -0.143532 970.562 
482 1 53.7944 7.82631 2.61936 950.254 
483 1 56.5976 4.48819 2.65428 974.136 
484 1 56.5457 7.48703 -0.394657 984.467 
485 2 56.4161 7.87952 2.21167 996.83 
486 2 56.6508 4.67339 -0.216637 984.174 
487 2 53.5872 7.27063 -0.307569 970.556 
488 2 53.742 4.16488 2.4035 968.788 
489 1 58.994 4.23633 -0.879232 963.227 
490 1 59.6539 7.95982 2.87293 973.36 
491 1 61.31 4.2157 2.0383 975.83 
492 1 62.068 7.24064 0.0643384 979.368 
493 2 62.1031 7.21667 2.68773 993.938 
494 2 62.0058 4.3324 -0.439521 986.353 
495 2 59.3352 6.80419 -0.161946 979.542 
496 2 58.9014 3.92445 2.82048 961.618 
497 1 64.8322 3.9836 -0.498394 986.314 
498 1 64.7568 7.5318 2.42153 987.899 
499 1 67.505 4.71195 2.65997 978.836 
500 1 67.6993 6.99599 -0.83845 987.887 
501 2 67.9861 7.28867 2.7608 984.031 
502 2 67.3849 4.32191 -0.68365 981.503 
503 2 64.7052 6.95373 -0.35849 992.39 
504 2 64.9895 4.40278 2.36853 988.838 
505 1 70.0972 4.28261 -0.412712 993.767 
506 1 70.4253 7.52569 3.01768 993.639 
507 1 73.5041 4.58992 2.38668 1013.14 
508 1 73.1616 7.65976 -0.434277 998.867 
509 2 73.5917 7.73977 2.73322 988.246 
510 2 73.0524 4.46699 -0.270093 998.427 
511 2 70.3777 7.30984 0.114612 982.828 
512 2 70.376 4.31528 2.56659 987.595 
513 1 76.0233 4.72836 -0.358932 1004.84 
514 1 76.7478 7.5167 2.44173 994.499 
515 1 79.2546 3.85058 2.41487 1013.63 
516 1 79.9166 6.98154 -0.483336 994.685 
517 2 79.299 7.66183 2.1581 1011.07 
518 2 79.6438 4.23351 -0.103798 1012.89 
519 2 75.7918 7.20511 -0.475438 993.172 
520 2 75.8785 4.46731 2.1949 994.838 
521 1 82.7444 3.99269 -0.561778 1019.93 
522 1 82.6196 7.04917 2.50542 1020.32 
523 1 85.2191 3.99325 2.3809 1023.79 
524 1 85.1929 7.34906 -0.462777 1000.79 
525 2 84.8844 6.61853 2.34383 993.229 
526 2 85.6559 3.92064 -0.595929 1022.04 
527 2 82.4042 7.55818 -0.721832 995.415 
528 2 82.2611 4.06616 2.33752 1017.56 
529 1 88.4013 4.03195 -0.869145 1016.11 
530 1 87.9826 6.91424 2.39241 1041.87 
531 1 91.3112 4.59284 2.53497 1020.44 
532 1 91.3663 7.59084 -0.191198 1012.46 
533 2 91.4146 7.17309 2.55145 1004.46 
534 2 91.3499 3.92244 -0.38602 1045.81 
535 2 88.0467 7.4273 0.0184977 1042.13 
536 2 88.1463 4.20084 2.8297 1013.39 
537 1 94.0855 4.29172 -0.0049624 1027.5 
538 1 94.4527 7.30413 2.80303 1004.28 
539 1 97.2042 3.77552 2.87028 1042.19 
540 1 96.1829 7.80872 -0.563625 1017.31 
541 2 96.8321 7.65285 2.07739 1007.12 
542 2 96.9011 4.43492 -0.243181 1038.93 
543 2 93.7661 7.04631 -1.05414 1025.76 
544 2 94.637 4.02019 2.6799 1007.84 
545 1 99.7239 4.80413 -0.672789 1048.81 
546 1 100.165 7.25063 1.96485 1036.92 
547 1 103.599 4.43897 2.53053 1039.63 
548 1 102.351 7.3732 -0.691583 1033.73 
549 2 102.749 7.65729 2.44487 1037.73 
550 2 102.551 4.62702 -0.510387 1043.99 
551 2 100.048 7.4569 -0.685767 1014.81 
552 2 100.37 4.31754 2.76026 1065.33 
553 1 105.418 4.52709 -0.464415 1044.13 
554 1 105.547 7.83112 1.87818 1049.99 
555 1 108.525 5.3283 2.50844 1037.29 
556 1 108.678 8.04835 -0.639878 1049.08 
557 2 108.307 8.05339 1.78073 1051.92 
558 2 108.031 4.79992 -0.568121 1033.74 
559 2 105.337 7.29604 -0.797378 1044.06 
560 2 105.835 5.45549 2.54314 1030.52 
561 1 111.782 4.79836 -1.18444 1042.68 
562 1 111.46 7.7563 2.57642 1059.12 
563 1 114.422 4.08606 2.4797 1041.89 
564 1 114.159 7.66751 -1.03032 1052.46 
565 2 114.608 7.65843 3.27495 1067.43 
566 2 114.27 5.31225 -0.482685 1070.94 
567 2 111.447 7.56193 -1.05777 1067.69 
568 2 111.79 4.72054 2.96984 1060.42 
569 1 116.837 4.80594 -0.51896 1064.29 
570 1 117.124 7.77721 2.51596 1049.3 
571 1 119.736 5.25458 2.63119 1063.52 
572 1 120.303 7.89817 -0.562071 1066.77 
573 2 120.39 7.84773 3.01272 1076.47 
574 2 119.411 5.23642 -0.143713 1059.15 
575 2 117.291 8.19286 -1.07314 1044.74 
576 2 117.023 4.71774 3.08866 1054.09 
577 1 122.801 5.3296 -0.142337 1047.62 
578 1 122.68 7.98805 2.70019 1053.07 
579 1 126.031 5.13267 3.22586 1069.77 
580 1 125.631 8.15722 -0.46146 1055.89 
581 2 125.816 8.22067 2.97159 1045.35 
582 2 125.906 5.39432 -0.278281 1062.58 
583 2 122.615 7.88762 -0.224823 1073.31 
584 2 122.975 5.06616 2.53958 1089.15 
585 1 128.552 4.89272 0.118989 1054.37 
586 1 128.265 7.77821 2.55583 1081.06 
587 1 131.729 4.93904 2.60914 1076.55 
588 1 131.654 8.07074 0.109387 1061 
589 2 132.299 7.94728 2.47064 1052.6 
590 2 131.445 5.24169 -0.119135 1090.69 
591 2 129.207 7.80202 -0.212115 1069.87 
592 2 128.507 4.93441 2.73889 1071.6 
593 1 134.376 5.40912 0.257601 1077.59 
594 1 135.334 8.03211 3.51375 1093.58 
595 1 137.221 4.84394 2.57631 1109.22 
596 1 137.911 7.57596 -0.322655 1072 
597 2 137.874 7.81754 2.84931 1101.23 
598 2 137.198 5.12624 -0.439878 1087.22 
599 2 135.187 8.25779 -0.253436 1087.54 
600 2 134.317 4.85669 3.15055 1074.26 
601 1 141.119 4.7016 -0.0375245 1090.89 
602 1 140.522 7.59724 2.17072 1097.33 
603 1 143.556 5.22492 2.86015 1108.06 
604 1 143.234 8.15842 0.0342877 1069.55 
605 2 143.566 7.92815 2.39931 1097.65 
606 2 143.503 4.882 -0.101677 1072.44 
607 2 140.615 7.92405 -0.275323 1083.62 
608 2 140.419 4.83952 2.37751 1098.81 
609 1 146.545 4.98347 -0.416266 1059.69 
610 1 146.387 7.99253 2.28235 1077.96 
611 1 149.434 4.97776 2.31655 1075.32 
612 1 149.458 8.38968 -0.0759325 1070.76 
613 2 149.523 7.74122 2.71799 1101.97 
614 2 149.011 4.70892 -0.331801 1092.16 
615 2 146.745 8.09134 -0.271405 1098.26 
616 2 146.276 5.15877 2.53106 1073.94 
617 1 151.502 4.83052 -0.394406 1077.05 
618 1 152.768 8.1007 2.69755 1082.3 
619 1 155.702 4.97466 2.43271 1056.11 
620 1 154.651 7.62786 -0.0648335 1074.58 
621 2 155.34 8.23234 2.49144 1081.43 
622 2 155.144 4.98549 -0.591335 1093.76 
623 2 152.19 7.75565 -0.00710826 1090.86 
624 2 152.31 5.20015 2.69204 1076.98 
625 1 157.813 4.9561 -0.846118 1070.5 
626 1 158.104 8.25486 2.63128 1063.31 
627 1 161.128 4.83767 2.02798 1062.66 
628 1 161.312 7.97197 -0.331911 1086.19 
629 2 161 8.38535 2.31025 1070.58 
630 2 161.058 4.59247 -0.645571 1067.89 
631 2 158.349 8.79576 -0.0334722 1078.15 
632 2 158.056 4.98998 2.52936 1066.18 
633 1 164.377 4.77923 -0.841076 1055.41 
634 1 163.896 8.21306 2.18307 1083.53 
635 1 166.802 4.6554 2.08901 1088.33 
636 1 166.811 9.09392 0.0461793 1084.35 
637 2 167.245 7.61502 1.76574 1065.29 
638 2 167.095 4.55057 -0.582525 1073.76 
639 2 164.254 7.62857 -0.552238 1080.64 
640 2 163.683 4.99779 2.05493 1081.67 
641 1 169.555 5.57954 -0.783188 1079.11 
642 1 170.029 7.91429 2.59757 1067.38 
643 1 172.397 5.18035 2.1646 1077.39 
644 1 173.079 7.5185 -1.32612 1075.28 
645 2 172.406 8.15122 2.0686 1077.96 
646 2 172.905 4.78572 -0.409514 1059.3 
647 2 170.58 7.84872 -0.936739 1067.98 
648 2 169.602 4.94974 2.16058 1079.32 
649 1 175.699 5.24138 -0.728621 1058.68 
650 1 174.954 8.70712 2.70551 1046.85 
651 1 178.527 4.84641 2.91944 1052.88 
652 1 178.377 7.99037 -0.588097 1043.9 
653 2 178.395 8.46795 2.65145 1045.94 
654 2 178.26 4.56256 -0.888698 1038.24 
655 2 175.567 8.23953 -0.413952 1036.09 
656 2 175.75 4.63816 2.21882 1058.91 
657 1 181.294 4.82616 -0.448204 1043.41 
658 1 181.327 8.18142 2.29439 1051.28 
659 1 184.254 4.99297 2.04703 1033.27 
660 1 183.777 8.1566 -0.733845 1047.32 
661 2 184.246 7.46012 2.29915 998.773 
662 2 183.93 5.16454 -0.703887 1027.87 
663 2 181.288 7.58926 -0.333764 1040.48 
664 2 181.252 4.85265 2.73482 1031.59 
665 1 186.587 5.54351 -0.4865 1028.54 
666 1 186.783 7.87918 2.4969 1033.24 
667 1 189.971 4.73412 3.16246 1037.79 
668 1 189.964 7.39737 -0.791242 1024.07 
669 2 189.912 7.60149 2.68116 1033.57 
670 2 190.017 4.96174 -0.785963 1042.61 
671 2 186.387 7.90802 -0.998233 1040.28 
672 2 187.035 5.23837 2.26701 1033.76 
673 1 192.316 4.73007 -0.261434 1042.31 
674 1 193.226 7.19839 2.64034 1013.45 
675 1 195.734 4.87311 2.76996 1014.79 
676 1 195.605 7.50591 -0.523546 1014.28 
677 2 195.519 7.49922 2.49958 1026.12 
678 2 195.281 4.20612 0.0499368 1039.96 
679 2 192.752 7.78715 -0.371691 1037.03 
680 2 192.663 4.5551 3.22318 1055.41 
681 1 198.161 4.10557 -0.241245 1030.49 
682 1 198.892 8.15988 2.39298 1022.84 
683 1 201.275 4.63587 2.86417 992.027 
684 1 200.973 7.27976 -0.397505 1022.39 
685 2 201.496 7.47797 2.80846 1034.16 
686 2 201.357 4.5637 -0.311086 1046.29 
687 2 198.196 7.52425 -0.211326 1023.22 
688 2 198.84 4.22756 2.75044 1012.8 
689 1 204.277 3.96678 -0.688242 1041.68 
690 1 204.179 7.95197 2.56948 1025.49 
691 1 207.591 4.40987 2.51565 1003.36 
692 1 206.844 6.89537 0.1385 1010.77 
693 2 207.382 7.66743 2.73064 1022.87 
694 2 207.363 4.41847 -1.02768 1027.7 
695 2 204.589 7.74715 -0.0582901 1007.56 
696 2 205.007 4.54778 2.26801 1008.41 
697 1 210.667 4.68839 -0.866229 1005.8 
698 1 209.962 7.9038 2.17651 1010.18 
699 1 212.818 4.67473 2.77862 1007.14 
700 1 212.861 7.66608 -0.42305 1012.52 
701 2 213.202 7.79211 2.34217 1024.85 
702 2 213.055 4.55495 -0.747715 1016.94 
703 2 210.3 7.66792 -0.595311 1006.47 
704 2 209.981 4.94079 2.36749 1007.46 
705 1 215.481 4.37149 0.14739 996.504 
706 1 216.556 7.66205 3.48597 998.857 
707 1 218.597 4.97907 2.34292 1005.9 
708 1 219.008 7.39783 -0.266409 986.271 
709 2 219.083 7.79079 2.76413 995.289 
710 2 218.887 4.92656 -0.216205 1019.1 
711 2 215.535 7.37382 -0.641656 1006.85 
712 2 215.962 4.33429 2.82244 1015.12 
713 1 221.72 5.05905 -0.496973 999.224 
714 1 221.777 8.05759 2.90333 975.804 
715 1 224.694 4.99576 2.1948 980.613 
716 1 225.136 7.87619 -0.296471 968.906 
717 2 224.255 7.66141 2.19886 986.475 
718 2 224.64 4.73409 -0.230868 992.535 
719 2 222.01 7.79793 -0.783211 964.24 
720 2 221.407 4.7619 2.57732 981.055 
721 1 228.249 4.77821 -0.51428 983.602 
722 1 228.026 7.8135 2.50028 1007.1 
723 1 230.82 4.28024 2.57258 1001.4 
724 1 230.862 7.98244 -0.507269 981.813 
725 2 230.7 7.86219 2.81982 982.011 
726 2 231.043 4.65751 -0.156148 987.458 
727 2 227.966 8.1956 -0.573096 987.964 
728 2 227.554 5.32996 2.45749 991.583 
729 1 233.747 4.22603 -0.297384 987.565 
730 1 233.099 7.44719 2.25106 1006.94 