ITEM: TIMESTEP
7000000
ITEM: NUMBER OF ATOMS
8400
ITEM: BOX BOUNDS pp pp pp
-5.9099547646241319e+00 2.8359995476463484e+02
-2.1446273254920634e+00 4.0174627325491812e+01
-1.7757301867509554e+00 1.6325730186751606e+01
ITEM: ATOMS id type x y z f_TolTpA 
1 1 -4.15653 -1.01066 -1.00435 910.824 
2 1 -3.93437 1.87048 2.71182 919.094 
3 1 -0.887536 -1.15682 2.74516 923.211 
4 1 -1.80061 1.11916 -0.910934 928.241 
5 2 -1.41878 1.45551 2.43642 914.346 
6 2 -1.54163 -1.43664 -1.26025 889.376 
7 2 -4.30127 1.78165 -0.57699 901.143 
8 2 -3.51888 -0.944827 1.9968 913.063 
9 1 1.16166 -1.46338 -0.716389 927.439 
10 1 1.51219 1.64165 2.04854 914.118 
11 1 4.65938 -1.63498 1.91731 920.435 
12 1 4.54801 1.7844 -0.787439 942.143 
13 2 5.03225 1.60319 2.26634 913.334 
14 2 4.51366 -1.26048 -0.972961 927.629 
15 2 1.19251 1.23622 -0.536186 906.012 
16 2 1.73909 -1.20031 2.15288 926.27 
17 1 7.03576 -1.47475 -0.725487 915.11 
18 1 7.63931 1.70946 2.62427 917.674 
19 1 9.9991 -1.27265 2.22129 921.911 
20 1 10.0857 1.08536 -0.617514 932.396 
21 2 10.203 1.38115 2.33479 917.313 
22 2 10.2506 -1.64614 -0.899139 921.617 
23 2 7.6669 1.49224 -1.0611 927.44 
24 2 7.30272 -1.55948 1.90157 930.114 
25 1 13.581 -1.4768 -0.985759 916.473 
26 1 12.8821 1.47711 2.74789 916.085 
27 1 15.6587 -1.19078 2.56291 923.804 
28 1 16.6565 1.34883 -0.456446 922.06 
29 2 15.8498 1.68833 2.59903 935.999 
30 2 15.9811 -1.28018 -0.187806 928.835 
31 2 12.8408 1.30878 -0.768442 915.483 
32 2 12.8105 -1.18589 2.61039 917.387 
33 1 18.532 -1.41803 -0.655213 956.16 
34 1 19.2825 1.41663 2.39733 931.776 
35 1 21.7039 -1.1975 2.08913 950.668 
36 1 21.8883 1.85776 -0.753744 942.27 
37 2 21.9772 1.37509 1.66525 938.758 
38 2 21.9977 -1.5289 -0.596448 967.665 
39 2 19.112 1.30564 -0.799506 938.274 
40 2 18.7906 -0.971004 2.13492 924.997 
41 1 24.6133 -1.32803 -0.349349 971.571 
42 1 24.8209 1.88487 2.5268 949.051 
43 1 27.417 -1.30278 2.82078 937.998 
44 1 27.389 1.37937 -0.962564 922.296 
45 2 27.6507 1.519 2.41892 940.617 
46 2 27.1085 -1.20724 -0.610538 942.787 
47 2 24.6544 1.78872 -0.800522 950.857 
48 2 24.7311 -1.77254 2.31248 969.768 
49 1 29.9954 -1.5465 -0.830153 924.5 
50 1 30.416 1.40974 2.4278 935.015 
51 1 33.1214 -1.62456 2.38221 928.662 
52 1 33.0298 1.71387 -0.50125 939.003 
53 2 33.2614 1.16827 1.90153 943.871 
54 2 33.2984 -2.00407 -0.864489 919.254 
55 2 30.2849 1.62727 -1.00081 944.243 
56 2 30.15 -1.75216 2.18248 939.464 
57 1 35.9077 -1.52994 -0.862581 949.9 
58 1 35.5416 1.41273 2.87888 967.999 
59 1 38.9674 -1.52343 2.0861 967.167 
60 1 39.1493 1.31371 -1.07164 945.806 
61 2 38.8098 1.54958 2.44899 923.789 
62 2 39.0239 -1.38898 -0.891625 950.539 
63 2 35.8964 0.868668 -1.1915 962.05 
64 2 36.2856 -1.61898 2.71613 951.323 
65 1 41.3908 40.1223 -1.11555 960.379 
66 1 41.9007 1.41155 2.70019 963.039 
67 1 44.4231 -1.49161 2.16076 942.226 
68 1 44.9877 1.27975 -0.261 973.606 
69 2 44.461 1.41315 2.30158 965.295 
70 2 44.5595 -1.95753 -0.407918 965.728 
71 2 42.1576 1.40406 -0.983358 956.008 
72 2 41.5419 -1.58842 2.20265 944.475 
73 1 47.2618 -2.07029 -1.02842 952.036 
74 1 47.9438 1.39972 2.19433 953.895 
75 1 50.3954 -1.11545 1.58375 959.496 
76 1 50.2927 1.87968 -0.827326 974.47 
77 2 50.6953 1.52191 2.11022 971.57 
78 2 50.2194 -1.01193 -1.09766 981.784 
79 2 47.6428 1.22029 -1.00602 964.047 
80 2 48.0378 -1.23667 2.14784 977.964 
81 1 53.4351 -1.96987 -0.152306 963.618 
82 1 53.6792 1.06808 2.29833 994.557 
83 1 56.4042 -1.72312 2.77628 965.443 
84 1 56.038 1.32519 -0.136293 1007.58 
85 2 56.0746 1.30718 2.44896 965.603 
86 2 56.2212 -1.49725 -0.257298 976.358 
87 2 53.5193 1.69645 -0.718264 974.33 
88 2 53.5024 -1.54085 2.31118 965.299 
89 1 59.3957 -1.60435 0.0129343 977.106 
90 1 58.8496 1.6495 2.68445 979.062 
91 1 62.1405 -1.63103 1.98418 982.572 
92 1 61.8961 1.64711 -0.170924 978.719 
93 2 61.6437 1.27502 2.70235 967.995 
94 2 62.4368 -1.12289 -0.496887 982.579 
95 2 58.7628 1.37351 0.101035 976.388 
96 2 58.7812 -1.78435 2.54033 974.67 
97 1 65.2068 -1.15401 -0.843541 975.432 
98 1 64.9336 1.49668 2.92267 964.581 
99 1 67.5939 -1.66417 2.48765 999.975 
100 1 67.9632 1.70074 -0.278373 985.225 
101 2 67.3489 1.0737 2.49786 981.754 
102 2 67.7038 -1.50031 -0.847763 980.823 
103 2 65.0712 1.88933 -0.263978 988.812 
104 2 65.0749 40.0593 2.35977 977.517 
105 1 70.4821 -0.760129 -0.0413153 984.743 
106 1 70.0981 1.89021 3.00354 999.792 
107 1 73.6561 -1.99676 2.57418 1004.43 
108 1 73.8642 1.74042 -0.129675 987.534 
109 2 73.1604 1.82856 2.71409 993.056 
110 2 74.0757 -1.38561 -0.220426 995.628 
111 2 70.8417 1.6025 -0.57704 988.768 
112 2 71.0472 -1.35199 2.47974 986.702 
113 1 76.7365 -0.887977 -0.0558104 1013.2 
114 1 76.4063 1.46264 2.91706 1005.18 
115 1 79.1474 -1.16948 3.25261 1000.86 
116 1 78.9814 1.44824 -0.13058 988.805 
117 2 79.074 1.97532 3.08943 1045.43 
118 2 79.3526 -1.65673 0.283864 1007.48 
119 2 76.523 1.68113 -0.111088 1003.89 
120 2 76.3457 -1.12418 2.66686 1001.18 
121 1 82.3449 -1.36402 -0.339965 997.172 
122 1 81.9655 1.35739 3.0569 1019.83 
123 1 85.0122 -1.23261 2.66289 1011.87 
124 1 84.7574 1.92851 -0.0880109 1027.95 
125 2 85.5853 1.57379 2.33169 1011.62 
126 2 85.1367 -1.78803 -0.132956 1002.46 
127 2 82.0681 1.43458 -0.51296 1009.94 
128 2 82.028 -1.10953 2.85119 1026.39 
129 1 87.8565 -1.76377 -0.140574 1022.51 
130 1 88.4433 1.37015 2.35951 1024.24 
131 1 90.9145 -1.2048 2.72201 1018.68 
132 1 91.0658 1.07538 -0.460168 1030.02 
133 2 91.0136 1.63871 2.3088 1018.66 
134 2 91.1135 -1.31388 0.17662 1013.14 
135 2 88.4738 2.03375 -0.659002 1009.97 
136 2 88.3306 -1.32132 2.69954 1011.1 
137 1 94.5071 -1.29347 0.125688 1027.87 
138 1 93.6545 2.10826 2.55963 1039.42 
139 1 96.8273 -1.22449 2.89522 1020.02 
140 1 96.4748 1.81197 0.324316 1033.48 
141 2 96.0969 1.29669 2.84501 1048.82 
142 2 97.6026 -1.93636 -0.455 1036.07 
143 2 94.0647 1.4303 -0.388456 998.032 
144 2 93.9858 -1.50163 2.60321 1036.92 
145 1 100.214 -1.45335 -0.478352 1036.12 
146 1 100.039 2.29094 2.92388 1033.26 
147 1 102.239 -1.12698 2.4617 1018.24 
148 1 103.038 1.76383 -0.129376 1036.28 
149 2 102.785 2.35505 3.08596 1047.77 
150 2 102.851 -1.04258 -0.534118 1037.48 
151 2 99.907 1.57054 0.84489 1045.4 
152 2 99.3404 -1.45467 3.12424 1043.03 
153 1 105.729 -0.722954 -0.803362 1039.35 
154 1 105.414 2.03875 3.09141 1035.77 
155 1 107.777 -0.770515 2.20201 1063.8 
156 1 108.16 3.02878 0.341604 1051.79 
157 2 108.418 2.43714 2.96954 1035.4 
158 2 107.877 -1.44307 -0.390156 1054.29 
159 2 105.915 2.01944 -0.20488 1056.37 
160 2 105.306 -0.689858 2.69827 1037.69 
161 1 111.03 -1.05491 -0.273148 1039.5 
162 1 111.105 2.14577 2.97573 1054.05 
163 1 114.079 -1.23844 3.0095 1035.09 
164 1 114.39 1.96994 0.0908647 1067.17 
165 2 113.82 2.26551 2.57076 1043.07 
166 2 114.024 -1.73089 -0.316397 1066.01 
167 2 110.876 2.36905 -0.219763 1050.47 
168 2 111.428 -0.862337 3.36599 1051.92 
169 1 116.881 -0.825891 -0.722204 1054.62 
170 1 117.203 1.5135 2.82158 1061.38 
171 1 120.554 -1.21542 2.58772 1070.92 
172 1 120.01 2.02496 -0.0295399 1071.24 
173 2 120.229 1.59754 2.40859 1080.74 
174 2 120.133 -1.62161 -0.361141 1065.38 
175 2 117.14 1.77954 0.0203724 1071.38 
176 2 116.641 -0.921405 3.1367 1059.27 
177 1 122.928 -1.68202 -0.248958 1072.97 
178 1 123.028 1.08523 2.45949 1094.61 
179 1 126.395 -1.7697 2.43463 1095.83 
180 1 125.934 1.83852 -0.646342 1053.61 
181 2 126.092 1.32346 3.22587 1065.92 
182 2 126.393 -0.962757 -0.416457 1076.47 
183 2 123.059 1.66755 -0.188956 1097.56 
184 2 123.567 -1.61489 2.59652 1053.67 
185 1 129.276 -1.89801 -0.869421 1083.97 
186 1 129.583 1.49509 2.47578 1090.91 
187 1 132.083 -1.48476 1.95146 1104.17 
188 1 131.672 1.258 -0.960631 1096.45 
189 2 132.006 1.38577 1.50402 1097.27 
190 2 132.055 -1.76038 -0.639635 1081.55 
191 2 128.737 2.22837 -1.14388 1077.24 
192 2 129.322 -1.58801 2.06129 1106.37 
193 1 134.657 -1.75126 -0.62618 1088.22 
194 1 134.997 1.32666 2.58974 1098.08 
195 1 138.305 -1.75234 2.92175 1101.86 
196 1 137.675 1.15535 -0.685145 1098.44 
197 2 138.137 1.82533 3.13065 1111.29 
198 2 137.537 -1.84965 -0.311509 1074.93 
199 2 135.017 0.894358 -0.504924 1070.33 
200 2 134.804 -1.68336 2.50293 1098.58 
201 1 140.742 -1.93487 -0.67793 1103.8 
202 1 140.851 1.60729 1.92301 1101.51 
203 1 143.45 40.0252 2.64581 1099.36 
204 1 143.491 1.63563 -0.455329 1102.22 
205 2 143.401 1.23056 2.15997 1090.5 
206 2 143.358 -2.13552 -0.489296 1101.27 
207 2 140.831 1.60676 -0.535135 1116.18 
208 2 140.677 -1.49763 2.90912 1085.07 
209 1 146.27 -1.77679 -0.359454 1110.81 
210 1 146.549 1.37632 2.17646 1088.71 
211 1 149.694 -1.86641 2.44727 1090.7 
212 1 149.216 1.5682 -0.0188462 1080.78 
213 2 149.908 1.22305 2.54176 1078.4 
214 2 149.235 -0.989153 -0.463456 1081.77 
215 2 146.357 1.64782 -0.387774 1102.87 
216 2 146.429 -1.26457 2.26804 1118.24 
217 1 151.95 -1.42135 -0.730413 1082.14 
218 1 152.342 1.77404 2.55819 1068.85 
219 1 154.921 -1.89259 2.35993 1101.09 
220 1 154.855 1.33752 -0.451751 1080.35 
221 2 154.704 1.72908 2.57671 1082.38 
222 2 154.648 -1.39159 -0.743419 1061.26 
223 2 152.112 1.7813 -0.615519 1088.95 
224 2 152.129 -1.75495 1.71119 1090.57 
225 1 158.149 -1.22723 -0.221883 1070.06 
226 1 157.417 1.95064 2.56226 1086.68 
227 1 160.478 -0.903833 1.98476 1073.15 
228 1 160.506 2.05983 -1.5697 1074.28 
229 2 160.621 1.59211 2.85802 1064.12 
230 2 160.607 -0.767434 -0.66792 1064.72 
231 2 158.139 1.47314 -0.326517 1075.84 
232 2 157.673 -1.4226 2.21643 1109.82 
233 1 163.698 -0.74564 -0.640301 1092.13 
234 1 163.877 1.71201 2.73884 1046.38 
235 1 166.652 -1.68572 2.1465 1087.23 
236 1 166.85 1.41378 -0.46955 1054.79 
237 2 166.488 1.9829 2.34868 1073.35 
238 2 166.22 -1.22835 -1.50121 1089.3 
239 2 164.03 1.66288 -0.0716099 1073.52 
240 2 163.732 -1.5871 2.15604 1054.9 
241 1 169.967 -1.22214 -0.832563 1070.49 
242 1 169.557 1.61192 2.28823 1065.16 
243 1 172.354 -1.2349 2.56088 1039.37 
244 1 172.801 1.45542 -0.583691 1066.1 
245 2 172.628 1.36268 2.36153 1043.92 
246 2 172.925 -1.11196 -0.992982 1040.26 
247 2 169.858 1.96882 -0.481919 1045.15 
248 2 169.312 -1.34657 1.76427 1038.96 
249 1 175.341 -1.44326 -0.851166 1038.13 
250 1 175.403 1.35571 2.3873 1057.13 
251 1 178.401 -1.35644 1.99861 1068.75 
252 1 177.957 1.92691 0.280074 1048.75 
253 2 177.864 1.87845 2.70792 1037.51 
254 2 177.813 -1.23101 -0.4533 1064.39 
255 2 175.439 1.74849 -0.250949 1044.38 
256 2 175.605 -1.31693 3.17577 1048.71 
257 1 181.272 -0.94766 -0.365143 1034.09 
258 1 181.162 1.52573 3.15235 1034.79 
259 1 183.556 -1.54346 2.83083 1046.09 
260 1 184.314 1.432 -0.279001 1018.05 
261 2 184.098 0.989642 3.01839 1056.94 
262 2 184.07 -1.34719 -0.469647 1041.11 
263 2 181.69 1.77951 -0.0824553 1033.48 
264 2 181.19 -0.933042 2.53463 1043.38 
265 1 186.86 -1.38573 0.14237 1042.48 
266 1 187.126 2.5711 3.00763 1061.18 
267 1 190.039 -1.32591 2.84925 1051.38 
268 1 189.797 1.3073 -0.360731 1024.99 
269 2 189.852 1.4114 2.52108 1037.96 
270 2 190.235 -1.40845 -0.10327 1055.61 
271 2 187.083 1.30113 -0.216568 1052.85 
272 2 186.688 -1.73755 2.42027 1069.99 
273 1 192.697 -1.35771 -0.562903 1014.36 
274 1 192.944 2.09438 2.27393 1035.54 
275 1 195.733 40.0681 2.32194 1024.46 
276 1 195.875 1.28896 -0.664481 1028.91 
277 2 195.596 2.06918 2.58604 1017.71 
278 2 195.578 -1.17958 -0.315282 1024.85 
279 2 192.902 1.55282 -0.356443 1010.98 
280 2 193.207 40.0664 2.9546 1016.68 
281 1 198.428 40.0414 -1.13223 1014.04 
282 1 198.241 1.91917 2.9709 1004.86 
283 1 201.165 -0.94441 2.84275 1032.9 
284 1 201.149 1.66562 -0.412943 998.599 
285 2 201.405 1.48077 2.4413 1000.36 
286 2 201.15 -1.70745 -0.434614 1016.27 
287 2 198.663 1.53506 -0.20723 1029.44 
288 2 198.151 -1.77795 3.01746 1052.82 
289 1 203.911 -1.06418 -0.487739 984.59 
290 1 204.628 1.28649 2.34681 1015.74 
291 1 206.857 -1.55591 2.46735 987.907 
292 1 207.18 1.26169 -0.891074 1002 
293 2 207.567 1.27859 2.72802 1014.09 
294 2 206.857 -1.25635 -0.679012 990.116 
295 2 204.85 1.58656 -0.0146052 1040.41 
296 2 204.21 -1.60094 2.47978 1032.37 
297 1 210.072 -1.6028 -0.366146 990.807 
298 1 210.389 0.822014 1.70268 1004.59 
299 1 213.622 -1.80302 1.88796 992.108 
300 1 213.378 0.997363 -0.639609 989.325 
301 2 213.281 0.957082 2.0208 996.857 
302 2 213.106 -1.87393 -1.26362 996.027 
303 2 210.811 1.08406 -0.9535 995.755 
304 2 210.055 -1.56893 2.20903 1004.65 
305 1 216.043 39.8963 -1.38151 1000.63 
306 1 216.504 1.47734 1.97495 990.029 
307 1 219.449 40.0165 2.06241 998.947 
308 1 219.219 1.47929 -0.864421 996.668 
309 2 219.057 1.30312 2.27672 992.316 
310 2 219.768 -1.75008 -0.751851 1011.96 
311 2 216.409 1.24363 -1.12448 1001.22 
312 2 215.98 -1.68533 2.20394 994.657 
313 1 222.587 -1.59532 -1.31339 1014.08 
314 1 222.564 0.421161 1.97162 987.783 
315 1 225.131 -1.60487 2.2318 1000.46 
316 1 225.577 1.59985 -0.711575 1006.75 
317 2 225.14 1.15691 2.5664 975.809 
318 2 225.025 -1.46617 -0.827614 990.333 
319 2 222.334 1.08817 -0.915265 997.746 
320 2 222.352 -1.89805 2.21115 1020.15 
321 1 227.735 -1.81067 -0.670111 972.207 
322 1 228.097 1.63982 2.15978 981.644 
323 1 231.539 -0.985047 2.2091 998.676 
324 1 230.707 1.3227 -0.674581 980.768 
325 2 230.951 1.63498 2.28054 977.025 
326 2 231.028 -1.31486 -0.872578 985.269 
327 2 228.019 1.53804 -0.976224 1004.5 
328 2 228.113 -1.42679 2.12905 999.137 
329 1 233.735 -1.59137 -0.805707 965.462 
330 1 234.379 1.56124 1.90492 963.946 
331 1 237.037 -1.39082 1.68701 957.513 
332 1 237.239 1.75599 -0.643322 962.999 
333 2 237.224 1.52665 1.96084 970.002 
334 2 236.991 -1.2785 -0.893638 958.824 
335 2 233.355 1.54476 -1.1758 973.245 
336 2 234.01 -0.911711 1.59682 977.017 
337 1 239.576 -1.50033 -0.805378 950.045 
338 1 240.098 0.968992 2.34315 961.408 
339 1 243.296 -0.753974 2.43118 965.735 
340 1 242.247 1.59252 -0.599189 964.596 
341 2 242.912 1.74985 2.03748 959.122 
342 2 242.503 -1.44343 -0.984929 988.576 
343 2 239.777 1.39855 -0.602908 981.941 
344 2 239.876 -1.53334 2.50124 972.283 
345 1 245.082 -0.98594 -1.35209 959.165 
346 1 245.548 2.21743 2.16716 944.507 
347 1 248.261 -1.35933 2.78813 952.934 
348 1 248.008 1.88387 -0.770757 962.559 
349 2 248.046 1.66891 2.69526 974.872 
350 2 247.93 -1.27073 -0.80229 967.671 
351 2 245.217 1.82561 -1.11783 936.139 
352 2 245.367 -1.23804 1.86053 977.564 
353 1 250.905 -1.32938 -0.699319 950.378 
354 1 251.273 1.57698 2.57518 960.171 
355 1 254.023 -1.27193 2.23963 943.348 
356 1 253.603 1.25887 -1.05966 956.115 
357 2 253.826 1.89426 2.20622 944.344 
358 2 253.517 -1.29494 -0.237768 952.579 
359 2 251.071 1.74709 -1.41834 957.067 
360 2 251.214 -1.00414 2.06044 969.93 
361 1 256.888 -1.13675 -0.741276 963.654 
362 1 256.581 2.45666 2.29352 949.219 
363 1 259.36 -1.00614 2.29696 938.896 
364 1 259.64 2.05052 -0.520054 956.308 
365 2 259.547 2.40866 2.22524 951.747 
366 2 259.669 -0.443938 -0.402001 934.412 
367 2 256.557 1.79618 -0.404041 953.115 
368 2 256.657 -1.79744 1.40446 964.947 
369 1 262.577 -0.778956 -0.140541 950.259 
370 1 262.643 2.29743 2.35945 936.919 
371 1 265.263 -0.535412 2.09722 931.87 
372 1 265.244 2.11272 -0.636286 950.465 
373 2 265.254 2.27637 2.61337 943.173 
374 2 265.119 -0.895547 -0.836782 930.549 
375 2 262.574 2.43795 -0.412334 964.037 
376 2 262.751 -0.530187 2.55621 945.801 
377 1 267.891 -0.786557 -1.00867 917.778 
378 1 267.944 2.21996 2.18923 959.944 
379 1 271.088 -0.309845 2.62468 927.244 
380 1 271.497 2.15011 -0.518931 918.375 
381 2 270.886 2.13291 2.80511 931.463 
382 2 270.968 -0.562648 -0.245311 938.309 
383 2 267.956 2.1924 -0.557477 932.346 
384 2 268.041 -0.856357 2.05236 954.411 
385 1 273.65 -1.20695 -0.6328 924.885 
386 1 273.927 2.46926 2.79236 923.552 
387 1 276.774 -1.24995 1.98863 902.093 
388 1 276.762 1.59645 -0.625677 912.086 
389 2 276.84 2.10911 1.99447 923.211 
390 2 277.019 -1.14088 -0.649221 907.934 
391 2 274.043 2.31548 -0.567552 924.753 
392 2 273.819 -0.985685 2.73144 911.347 
393 1 279.543 -0.831824 -0.70289 926.641 
394 1 279.401 1.81192 1.79272 908.337 
395 1 282.471 -0.5374 2.13954 914.844 
396 1 282.804 2.24398 -0.948977 929.693 
397 2 282.395 1.8493 2.04043 903.409 
398 2 282.735 -0.932874 -1.0696 892.063 
399 2 279.52 1.88109 -0.80505 923.037 
400 2 279.738 -1.31707 2.03108 919.854 
401 1 -3.61866 4.54165 -0.412466 909.925 
402 1 -4.06186 8.05981 2.3236 903.037 
403 1 -1.05147 4.32687 2.57047 925.332 
404 1 -1.04807 8.50221 -0.967541 906.254 
405 2 -0.853485 8.35084 2.39429 899.105 
406 2 -1.17128 4.45573 -0.50885 907.278 
407 2 -3.65067 8.41445 -0.768831 901.014 
408 2 -3.9044 5.0125 2.47367 911.674 
409 1 1.2524 4.27569 -0.643059 906.757 
410 1 1.66081 8.32513 2.28078 936.957 
411 1 4.43412 4.71968 2.13883 922.009 
412 1 4.53109 7.8833 -0.680583 931.56 
413 2 4.29912 7.18244 2.22511 922.995 
414 2 4.85652 4.58201 -0.70088 921.042 
415 2 1.72518 7.9468 -1.19283 920.305 
416 2 1.60198 4.33503 2.44821 908.474 
417 1 7.48817 4.35128 -0.741639 919.915 
418 1 7.37988 7.21291 2.14566 921.167 
419 1 10.3365 4.19599 2.5159 899.542 
420 1 10.3304 7.33808 -0.994647 912.739 
421 2 9.93108 7.32758 2.02523 944.958 
422 2 9.97712 4.54818 -0.902601 926.308 
423 2 7.24008 7.58832 -0.811218 917.176 
424 2 7.53402 4.61649 1.88453 903.658 
425 1 12.5933 4.85028 -1.21536 937.806 
426 1 12.7239 7.73925 1.92829 925.395 
427 1 15.5739 4.45359 2.42232 932.611 
428 1 15.8297 7.96855 -0.443953 941.101 
429 2 16.1797 7.88065 2.17268 934.095 
430 2 16.3138 4.69642 -0.816486 942.51 
431 2 13.3627 7.32934 -1.39533 925.919 
432 2 12.8778 5.00919 1.57052 923.237 
433 1 18.7412 5.38655 -0.68294 944.589 
434 1 19.0609 8.10731 2.3476 923.282 
435 1 22.0263 4.41552 2.26233 920.733 
436 1 22.1754 7.58833 -0.70219 916.516 
437 2 22.1542 7.53201 2.69197 940.18 
438 2 22.0381 4.44658 -0.539896 929.653 
439 2 18.5186 7.77211 -0.957493 916.642 
440 2 19.2585 4.71542 2.29563 937.917 
441 1 24.9126 4.55597 -0.888684 923.145 
442 1 24.6712 7.01615 2.86239 936.492 
443 1 27.8213 4.47537 2.62641 926.916 
444 1 27.4883 7.37336 -0.412921 937.738 
445 2 27.4656 7.50467 2.61757 924.521 
446 2 27.4701 4.38513 -0.716827 931.245 
447 2 24.6953 7.31119 -0.310055 937.711 
448 2 24.5976 4.62431 3.30644 938.443 
449 1 30.1762 4.56731 -1.25201 934.726 
450 1 30.283 7.32861 2.17278 956.104 
451 1 32.8326 4.48066 3.03335 936.412 
452 1 33.4351 7.34887 -0.892956 939.465 
453 2 33.3868 6.98741 2.50698 946.51 
454 2 32.6732 5.00592 -0.417312 943.262 
455 2 30.3106 7.24634 -0.898508 944.198 
456 2 30.2553 4.13868 2.64892 945.609 
457 1 35.8114 4.39855 -0.630475 942.686 
458 1 36.0028 7.30763 2.59274 971.444 
459 1 38.7107 4.00003 1.60057 949.024 
460 1 38.8089 7.48653 -0.966509 949.304 
461 2 38.709 6.88688 2.30779 961.246 
462 2 38.407 3.87845 -0.998987 967.168 
463 2 36.1906 7.38794 -0.82833 966.886 
464 2 36.0038 4.01205 2.57544 974.354 
465 1 42.24 4.1816 -0.34212 963.868 
466 1 41.8798 7.57463 2.36857 965.375 
467 1 44.9328 4.37121 2.15456 955.883 
468 1 44.5102 7.41408 -0.480284 946.928 
469 2 44.7152 7.37863 2.69558 976.648 
470 2 45.0662 4.06547 -0.348683 978.764 
471 2 41.5379 7.38466 -0.367875 951.303 
472 2 42.1398 4.99997 2.3141 940.038 
473 1 47.5325 4.59133 -0.604904 967.364 
474 1 48.3196 7.18804 2.95596 952.739 
475 1 50.5649 4.3664 2.65651 962.581 
476 1 50.4013 7.47575 -0.444649 979.537 
477 2 50.7218 7.64544 2.73947 966.293 
478 2 50.1304 4.67722 -0.19668 976.748 
479 2 47.6804 7.07076 -0.886262 968.242 
480 2 47.932 4.57841 2.62733 968.824 
481 1 53.2609 4.4303 -0.414819 972.561 
482 1 53.4365 6.95684 2.45418 980.776 
483 1 56.6552 4.05521 2.65279 981.138 
484 1 56.0026 7.47901 -0.083189 977.565 
485 2 55.9209 7.18871 2.59443 972.715 
486 2 56.2447 4.55522 -0.465985 1001.7 
487 2 53.3228 7.45233 -0.34034 969.37 
488 2 53.3106 4.50613 2.35899 1000.91 
489 1 58.7558 4.37042 -0.292002 983.947 
490 1 58.9861 7.56122 2.12708 1010.39 
491 1 62.2095 4.3067 2.24091 980.5 
492 1 61.8736 7.4662 -0.77656 983.455 
493 2 61.6508 7.47105 2.38341 980.25 
494 2 61.8697 4.37731 -0.294927 992.731 
495 2 59.2628 7.26291 -0.360794 997.629 
496 2 59.1563 4.24295 2.65713 990.001 
497 1 64.9413 4.59648 -0.534388 982.659 
498 1 64.8087 7.5227 2.15096 989.352 
499 1 67.4365 5.1142 2.67932 993.234 
500 1 67.5278 7.64303 -0.721349 988.074 
501 2 67.6763 7.91532 2.43331 978.412 
502 2 67.9138 4.96376 -0.159248 981.307 
503 2 64.4805 7.49078 -0.37548 990.14 
504 2 64.5126 4.80336 2.69878 984.695 
505 1 71.2769 4.34259 -0.838129 972.715 
506 1 70.4154 7.40377 2.08319 974.443 
507 1 73.4911 4.32903 2.26617 994.273 
508 1 73.9074 7.95749 -0.685992 997.8 
509 2 73.5386 7.89824 1.94509 992.918 
510 2 73.7253 4.97303 -0.534844 1014.97 
511 2 70.9685 7.72573 -0.408744 985.248 
512 2 70.6368 4.87372 3.04085 964.366 
513 1 76.5549 5.22707 -0.508082 1000.52 
514 1 76.0231 7.75753 2.17224 1007.31 
515 1 78.738 4.98714 2.33559 1015.5 
516 1 79.3307 8.2456 -0.635357 1012.95 
517 2 78.7763 7.52683 3.14348 1009.6 
518 2 79.4537 4.67274 -0.0996764 1006.05 
519 2 76.55 8.05501 -0.347892 1021.27 
520 2 76.2631 5.08065 2.20878 993.766 
521 1 82.1555 4.58745 -0.300915 996.576 
522 1 81.6931 7.8049 2.79072 1006.17 
523 1 85.2859 4.20992 2.49912 1029.2 
524 1 85.4251 7.54316 -0.252738 1015.7 
525 2 85.2112 7.91102 2.78676 1014.07 
526 2 85.4744 4.69753 -0.393622 1025.34 
527 2 82.3393 7.32808 -0.700152 1015.31 
528 2 82.0778 4.35039 2.7597 1018.56 
529 1 88.6189 4.97288 -0.393116 1005.01 
530 1 88.696 7.40462 3.14899 1026.47 
531 1 91.1484 4.75391 2.69199 1020.69 
532 1 91.079 7.62512 -0.568223 1033.53 
533 2 91.3903 7.31638 3.04366 1049.21 
534 2 91.2775 4.88397 0.0442559 1041.21 
535 2 88.2646 7.67696 -0.628241 1025.53 
536 2 88.5181 4.50379 2.86567 1001.68 
537 1 93.9542 4.50937 0.107973 1023.7 
538 1 94.3278 7.12362 2.98501 1041.76 
539 1 97.1502 5.13989 3.12537 1035.65 
540 1 96.8345 6.91977 -0.0100469 1031.39 
541 2 96.8431 7.65715 3.03921 1052.21 
542 2 96.4262 4.31726 0.00262358 1025.17 
543 2 94.3535 7.30224 -0.136842 1040.91 
544 2 94.1212 4.61647 3.03726 1037.2 
545 1 99.2984 4.09738 -0.594729 1053.43 
546 1 99.3633 7.51832 2.88732 1056.67 
547 1 102.156 4.85068 2.54114 1056.52 
548 1 101.676 7.36097 -0.262724 1035.54 
549 2 103.151 7.09748 2.8802 1035.75 
550 2 102.498 4.68088 -0.299501 1037.71 
551 2 99.2566 7.11252 -0.0404595 1045.96 
552 2 99.6783 4.88794 2.79409 1043.58 
553 1 105.134 4.92753 -0.341925 1031.14 
554 1 105.665 7.10767 2.71488 1049.79 
555 1 108.805 4.99296 2.93294 1059.61 
556 1 107.754 7.38994 -1.23714 1043.63 
557 2 108.243 7.49372 3.2615 1043.25 
558 2 108.913 5.1223 -1.2341 1057.38 
559 2 105.167 7.37256 -0.833566 1053.13 
560 2 105.95 4.46753 2.47188 1060.06 
561 1 111.32 5.13365 -0.284007 1055.49 
562 1 111.67 7.57931 2.59319 1066.87 
563 1 114.274 5.07552 2.62698 1039.41 
564 1 114.914 7.83219 -0.907268 1050.25 
565 2 114.609 7.62743 2.47562 1064.2 
566 2 114.629 5.03009 -0.727943 1047.36 
567 2 111.521 7.49524 -0.920672 1050.06 
568 2 111.274 4.73224 2.51276 1064.06 
569 1 116.971 5.14467 -0.271582 1054.87 
570 1 117.463 7.81375 2.72672 1057.81 
571 1 120.038 4.07155 3.11128 1088.84 
572 1 120.019 7.79894 0.0697479 1064.64 
573 2 120.564 8.15268 2.53895 1084.77 
574 2 120.158 4.82801 0.62382 1072.62 
575 2 117.521 8.20621 -0.53374 1053.46 
576 2 117.154 4.62857 2.73598 1054.63 
577 1 122.887 4.60715 0.179074 1072.72 
578 1 122.936 7.24482 2.18449 1070.32 
579 1 126.228 4.2749 2.83865 1067.88 
580 1 126.519 7.41584 -0.360513 1089.56 
581 2 126.175 7.03925 2.60691 1075.58 
582 2 125.88 4.38168 -0.252384 1068.66 
583 2 123.065 7.08567 -0.713635 1111.8 
584 2 123.342 4.73544 2.66428 1061.41 
585 1 129.042 4.48404 -0.381443 1087.51 
586 1 129.124 7.31931 2.59264 1063.14 
587 1 132.145 4.65568 1.86918 1087.84 
588 1 131.826 7.73042 -0.478368 1104.21 
589 2 131.748 7.32827 2.45002 1071.93 
590 2 131.875 4.7818 -0.68708 1077.69 
591 2 129.187 7.28864 -0.113395 1112.16 
592 2 128.958 4.47125 2.71537 1086.08 
593 1 134.646 4.90301 -0.666983 1100.73 
594 1 134.983 7.64193 2.55257 1117.35 
595 1 137.3 3.99199 2.36572 1133.53 
596 1 137.521 7.94518 -0.657097 1080.78 
597 2 137.509 6.69928 2.82855 1099.32 
598 2 137.493 3.92532 -0.281815 1092.62 
599 2 134.745 7.63654 -0.626442 1096.13 
600 2 134.936 4.78794 2.54803 1101.22 
601 1 140.417 4.52286 -0.758319 1097.19 
602 1 140.106 7.09585 2.02273 1096.91 
603 1 143.505 4.82067 2.47962 1124.97 
604 1 143.292 7.36204 -0.409275 1123.11 
605 2 143.241 7.86799 2.39253 1098.41 
606 2 143.81 4.71292 -0.0309011 1120.67 
607 2 140.369 7.12077 -0.583557 1112.73 
608 2 140.78 4.56813 2.31386 1097.41 
609 1 146.585 1.77237 15.0422 1106.31 
610 1 146.607 4.79833 -0.357349 1111.38 
611 1 149.598 4.72495 3.00936 1079.35 
612 1 149.384 7.57495 -0.957712 1106.67 
613 2 148.835 8.25743 2.69226 1094.95 
614 2 149.387 5.0453 -0.42801 1068.51 
615 2 146.183 7.32693 -0.426898 1084.7 
616 2 146.937 4.63768 2.42991 1088.36 
617 1 152.085 4.97835 0.0628954 1085.02 
618 1 151.217 8.14977 2.4499 1071.54 
619 1 154.435 5.27226 3.45273 1099.54 
620 1 155.043 7.84354 -0.317129 1077.38 
621 2 154.35 8.08895 3.14799 1090.79 
622 2 155.069 4.56626 -1.00876 1090.21 
623 2 152.179 8.01956 -0.000801927 1059.12 
624 2 152.009 4.97379 2.86789 1078.5 
625 1 157.502 4.04927 -0.841886 1092.99 
626 1 157.676 8.46349 3.1344 1074.13 
627 1 161.041 4.28942 2.43381 1079.28 
628 1 161.441 7.96166 0.231597 1081.74 
629 2 161.282 7.87901 2.78207 1096.13 
630 2 161.013 4.60107 -0.863103 1067.18 
631 2 158.245 7.77379 -0.379532 1078.29 
632 2 156.935 4.67654 2.33833 1067.27 
633 1 163.931 4.46312 -0.406678 1064.72 
634 1 163.906 7.90674 2.64499 1085.31 
635 1 166.922 4.62386 2.66348 1072.34 
636 1 166.898 7.87031 -0.324789 1045.23 
637 2 166.812 8.08658 2.68094 1063.1 
638 2 166.833 4.16348 -0.564248 1076.47 
639 2 164.068 7.61336 -0.721113 1078.92 
640 2 163.748 5.02338 2.78836 1068.34 
641 1 169.709 4.72826 -1.02909 1050.67 
642 1 169.588 7.33134 3.18823 1043.63 
643 1 172.445 4.64218 1.89139 1071.99 
644 1 172.818 7.624 -0.717918 1040.81 
645 2 172.843 7.98821 2.44975 1048.97 
646 2 172.367 5.19501 -0.90416 1029.23 
647 2 169.584 7.85884 -0.676164 1062.64 
648 2 169.861 4.30645 2.98222 1065.68 
649 1 175.716 4.52743 -0.5783 1045.15 
650 1 175.542 7.19297 2.61783 1047.92 
651 1 178.325 4.40578 2.8073 1044.16 
652 1 177.853 8.10409 -1.14038 1054.42 
653 2 177.797 6.8174 2.69357 1073.44 
654 2 178.284 4.11264 -0.264466 1039.52 
655 2 175.426 8.13987 -0.49569 1065.35 
656 2 175.123 4.4349 2.22757 1042.76 
657 1 180.66 4.78566 0.303178 1040.84 
658 1 180.458 7.7785 2.38006 1036.13 
659 1 184.043 5.27447 2.16629 1033.6 
660 1 183.93 7.13744 -0.980131 1029.65 
661 2 184.228 8.04127 1.59837 1034.31 
662 2 184.177 4.57598 -0.549425 1042.95 
663 2 180.847 7.71491 -0.703224 1033.95 
664 2 181.061 4.83971 2.77506 1041.55 
665 1 187.106 4.91592 -1.07634 1044.36 
666 1 187.095 7.75427 2.10072 1035.55 
667 1 190.011 4.92173 1.71019 1034.24 
668 1 189.757 7.65678 -0.720466 1042.07 
669 2 190.028 7.89523 1.81328 1053.57 
670 2 190.288 4.85218 -0.805868 1024.62 
671 2 187.134 7.6412 -0.66033 1030.23 
672 2 187.121 4.69342 2.16089 1033.41 
673 1 193.384 4.65546 -0.219366 1011.71 
674 1 193.112 8.01336 2.22621 1028.25 
675 1 195.907 4.8843 2.6043 1012.18 
676 1 196.243 7.58745 -0.712589 1021.38 
677 2 195.678 7.18568 2.45101 1041.72 
678 2 195.941 4.71794 -0.195703 1021.52 
679 2 193.076 7.54021 -0.959349 1010.81 
680 2 193.01 4.61661 2.55539 1044.27 
681 1 198.834 4.21011 -0.554159 1004.18 
682 1 198.52 7.65222 2.51483 1026.35 
683 1 201.292 4.60649 2.31867 1015.11 
684 1 201.79 7.37224 -0.123757 1011.52 
685 2 201.475 7.11955 2.95692 1032.92 
686 2 201.707 4.74938 -0.803594 990.895 
687 2 198.513 7.8791 0.129043 1000.22 
688 2 198.802 4.9587 2.80617 1016.56 
689 1 204.836 4.16062 -0.334446 1001.31 
690 1 204.832 7.20641 2.93434 1006.4 
691 1 207.353 4.15173 2.90473 1021.31 
692 1 207.518 7.62371 0.144793 1010.86 
693 2 207.644 7.51532 2.96824 995.547 
694 2 207.256 4.04822 -0.0979074 1037.34 
695 2 204.971 7.11757 0.080008 1005.19 
696 2 204.668 4.38413 3.15093 1021.38 
697 1 210.288 4.4243 -0.741359 1007.25 
698 1 210.127 7.25281 2.69862 1004.56 
699 1 212.785 4.03519 2.156 991.973 
700 1 213.024 7.45491 -0.393791 1023.77 
701 2 213.549 7.40295 2.4591 978.226 
702 2 213.335 3.86704 -0.680237 977.437 
703 2 209.964 6.95242 -0.252781 989.572 
704 2 210.346 3.73949 2.00442 1015.65 
705 1 216.2 4.13198 -0.531762 979.526 
706 1 216.304 7.04933 2.11216 978.493 
707 1 219.225 4.30495 2.2995 997.297 
708 1 219.278 7.22627 -0.516024 1001.86 
709 2 218.952 7.33016 2.52581 1008.9 
710 2 219.178 4.19367 -0.60335 1001.27 
711 2 215.888 7.24944 -0.680176 1000.62 
712 2 216.244 4.42036 2.2331 1015.03 
713 1 222.004 3.749 -0.615646 1012.4 
714 1 222.53 7.17529 2.41809 995.587 
715 1 225.163 4.12336 2.54598 965.01 
716 1 225.181 7.70895 -0.966373 985.978 
717 2 224.951 7.47332 2.53373 985.649 
718 2 225.32 4.53085 -0.774662 976.689 
719 2 222.522 7.38739 -0.991713 971.964 
720 2 221.935 4.45717 1.77848 986.882 
721 1 227.715 4.78304 -1.39751 959.325 
722 1 227.522 7.47004 2.71436 991.054 
723 1 230.651 4.46788 2.62191 997.445 
724 1 231.079 7.56169 -0.714076 1010.51 
725 2 230.528 7.60063 2.66498 970.849 
726 2 230.957 4.93576 -0.329632 968.375 
727 2 228.529 7.52695 -1.09921 980.061 
728 2 227.977 4.40584 2.99534 982.033 
729 1 234.275 4.71409 -0.298894 999.001 