ITEM: TIMESTEP
7500000
ITEM: NUMBER OF ATOMS
8400
ITEM: BOX BOUNDS pp pp pp
-5.9099547646241319e+00 2.8359995476463484e+02
-2.1446273254920634e+00 4.0174627325491812e+01
-1.7757301867509554e+00 1.6325730186751606e+01
ITEM: ATOMS id type x y z f_TolTpA 
1 1 -4.05446 -1.51792 -0.462438 906.664 
2 1 -4.02222 1.69097 2.59096 915.46 
3 1 -1.3224 -1.52774 3.00427 889.153 
4 1 -1.29286 2.35856 -0.602294 896.835 
5 2 -1.4324 1.71934 3.08078 902.515 
6 2 -1.47941 -1.51785 -0.20994 898.696 
7 2 -4.15345 1.63191 -0.460047 923.917 
8 2 -4.15505 -1.41834 2.5264 909.657 
9 1 1.45709 -1.50949 -0.196526 894.901 
10 1 1.31872 1.57953 2.88334 921.527 
11 1 4.6832 -1.30924 2.57442 907.641 
12 1 4.42562 1.32627 -0.343986 902.277 
13 2 4.18082 2.07133 2.35297 934.715 
14 2 4.50497 -1.10039 -0.612904 919.855 
15 2 1.42132 1.04981 -0.715443 906.241 
16 2 1.90569 -1.39191 2.9057 901.599 
17 1 7.44448 -1.5136 -1.03222 901.833 
18 1 7.52422 1.42691 2.51384 909.209 
19 1 10.0582 -0.964601 2.20241 924.023 
20 1 10.4722 1.35778 -1.51044 929.213 
21 2 10.3425 1.90626 2.88597 917.929 
22 2 10.3185 -1.48683 -0.491674 923.1 
23 2 7.37604 1.36253 -0.304195 929.455 
24 2 7.62389 -1.35117 2.57594 911.21 
25 1 13.2938 -1.35269 -0.305079 909.482 
26 1 12.8297 1.6915 1.95998 937.3 
27 1 16.2384 -1.10971 2.48074 941.259 
28 1 15.9553 1.78962 -0.827204 940.217 
29 2 16.3211 1.67872 2.29696 973.824 
30 2 16.2345 -0.77056 -0.511647 918.864 
31 2 13.043 2.01944 -0.593124 923.938 
32 2 12.9474 -0.842979 2.43293 927.706 
33 1 19.2871 -0.715006 -0.19816 924.729 
34 1 19.0879 1.86424 2.59047 936.165 
35 1 21.5012 -1.31189 2.72085 939.234 
36 1 21.778 1.79387 -0.617008 921.314 
37 2 22.1188 1.40065 2.19955 952.056 
38 2 21.7388 -1.38914 -0.498748 940.202 
39 2 18.9704 2.16184 -0.641948 917.981 
40 2 19.1249 -1.292 2.61944 925.359 
41 1 24.6058 -1.2258 -0.220988 938.92 
42 1 24.6893 1.40006 2.75748 938.21 
43 1 27.8696 -1.82137 2.92227 942.245 
44 1 27.1833 1.546 -0.113932 946.622 
45 2 27.3346 1.99411 2.69891 965.141 
46 2 27.35 -1.15475 -0.106516 939.749 
47 2 24.5041 1.44489 -0.399946 948.986 
48 2 25.0296 -1.83466 2.23946 939.189 
49 1 30.2832 -1.70045 -0.586608 951.652 
50 1 30.2077 1.14408 2.57702 985.758 
51 1 33.3043 -0.965015 2.09692 973.634 
52 1 33.1693 1.93142 -0.35981 934.537 
53 2 32.944 1.58583 2.56954 977.524 
54 2 33.2363 -1.69123 -0.425368 958.963 
55 2 30.6724 2.02937 -0.84144 959.165 
56 2 30.7073 -1.59046 2.54835 941.107 
57 1 36.0425 -1.79226 -0.631735 937.559 
58 1 35.5912 1.39745 2.66495 940.048 
59 1 38.9838 -1.32819 2.25824 950.721 
60 1 38.8325 1.49719 -0.177092 939.147 
61 2 38.8408 1.07084 2.33016 946.824 
62 2 38.7272 -1.61317 -0.406918 956.782 
63 2 35.6679 0.823528 -0.0257525 932.25 
64 2 35.614 -1.24701 2.92845 941.2 
65 1 42.0013 -0.813135 -0.289815 951.871 
66 1 42.1995 1.40585 2.68645 949.481 
67 1 44.6111 -1.94047 2.5948 959.609 
68 1 44.9701 1.80341 -0.333548 964.37 
69 2 44.9148 1.37414 2.79905 947.636 
70 2 44.67 -1.4891 -0.599144 959.55 
71 2 41.8834 1.80494 -0.495241 955.692 
72 2 41.8683 -1.18411 2.31743 958.397 
73 1 47.133 -1.60115 -0.617211 968.521 
74 1 47.8747 0.802924 2.70052 972.686 
75 1 50.4833 -1.99411 2.66887 971.972 
76 1 50.3816 1.30594 -0.136472 972.078 
77 2 50.3055 1.0458 2.8361 973.963 
78 2 50.6144 -1.36859 -0.582964 979.375 
79 2 47.5674 1.00509 0.00608973 978.464 
80 2 47.8674 -1.86318 2.48526 959.865 
81 1 52.9893 -1.40398 0.118605 955.734 
82 1 53.106 2.03191 2.91932 949.839 
83 1 55.7865 -0.743549 2.93619 975.62 
84 1 55.7983 2.06715 0.430624 975.98 
85 2 56.4812 1.77894 3.18673 964.113 
86 2 55.8701 -1.01255 0.31921 974.673 
87 2 53.1056 1.41339 0.572561 970.534 
88 2 53.4557 -1.92098 3.02351 968.221 
89 1 58.1891 -0.802524 0.118391 982.364 
90 1 58.9396 1.81304 2.86024 964.195 
91 1 61.7671 -1.93903 2.7789 986.526 
92 1 61.5686 1.79737 -0.0396853 981.425 
93 2 61.428 2.11057 3.35729 992.398 
94 2 61.0696 -1.29709 -0.050761 979.324 
95 2 58.7061 2.02352 -0.00830508 994.963 
96 2 58.5837 -1.20838 3.0902 960.043 
97 1 64.6372 -1.19832 -0.864866 994.49 
98 1 64.5532 1.67767 3.05718 974.628 
99 1 68.2948 -1.29112 1.91694 994.404 
100 1 67.5968 1.92754 -0.773254 1008.99 
101 2 67.6748 1.92634 2.39016 989.962 
102 2 67.3119 -1.27445 -0.864725 989.9 
103 2 64.6349 1.59335 -0.257868 1002.75 
104 2 64.6883 -1.1892 2.54104 990.942 
105 1 70.5518 -1.28453 -0.694426 1010.99 
106 1 71.1513 1.5515 1.93346 997.649 
107 1 73.3845 -0.578137 2.25072 1024.27 
108 1 73.9864 2.59082 -1.2016 988.322 
109 2 73.4855 1.98144 1.49882 1008.8 
110 2 73.3262 -1.56498 -0.567083 1007.86 
111 2 70.2074 2.02924 -0.760147 997.792 
112 2 70.7946 -0.568444 2.011 1004.12 
113 1 75.985 -1.1456 -0.608373 1002.1 
114 1 76.0118 2.09304 2.67958 984.806 
115 1 79.182 -1.17695 2.07285 1018.53 
116 1 79.7362 1.20367 -0.351635 1008.89 
117 2 79.1639 1.77827 2.36782 1003.22 
118 2 79.4202 -1.4699 -0.606959 981.596 
119 2 76.5283 1.77666 -0.498235 1010.72 
120 2 76.0902 -0.900588 2.05089 1001.73 
121 1 81.9786 -1.32406 -1.26089 994.568 
122 1 82.4801 1.81855 2.62381 970.901 
123 1 85.2367 -1.68727 2.71562 992.072 
124 1 84.7248 1.22684 -0.189725 986.558 
125 2 85.1854 1.91233 2.85798 1017.25 
126 2 84.9654 -1.5829 -0.744063 1028.3 
127 2 82.2124 1.89172 -0.332779 1011.68 
128 2 82.7898 -0.866883 2.4015 1010.42 
129 1 87.8827 -1.59978 -0.894383 1020.94 
130 1 88.2435 1.73957 2.22505 1019.33 
131 1 90.3523 -0.997194 2.134 1016.82 
132 1 90.6211 2.31136 -1.22118 1028.52 
133 2 91.015 1.70747 2.43155 1021.34 
134 2 90.6293 -1.51747 -0.789475 1001.43 
135 2 87.7819 2.12097 -0.520275 1014.74 
136 2 87.8166 -1.04477 1.91884 1014.4 
137 1 93.2514 -1.1788 -0.882199 1017.96 
138 1 93.6398 1.75022 1.93604 1016.67 
139 1 95.7788 -0.838918 2.56837 1042.63 
140 1 96.1077 1.81153 -0.971657 1024.55 
141 2 96.095 2.14621 1.97116 1022.64 
142 2 96.1906 -1.20931 -0.659053 1021.91 
143 2 93.5261 1.59344 -1.02949 1035.25 
144 2 93.354 -1.4222 2.20448 1023.35 
145 1 98.6542 -1.65424 -0.703064 1041.88 
146 1 99.7256 1.76412 2.19558 1039.9 
147 1 102.532 -1.19586 2.18453 1057.98 
148 1 102.319 1.83184 -0.41285 1036.83 
149 2 102.706 1.91477 2.44113 1055 
150 2 102.771 -1.23585 -0.307447 1048.26 
151 2 99.4874 1.7574 -0.384693 1041.3 
152 2 98.9534 -1.26965 1.96187 1048.78 
153 1 105.374 -0.969858 -1.075 1038.31 
154 1 106.049 1.52524 2.09131 1046.33 
155 1 108.686 -1.25287 2.09466 1048.39 
156 1 108.821 1.29529 -0.84284 1062.87 
157 2 108.541 1.71207 1.75299 1030.69 
158 2 108.927 -1.25922 -1.08082 1052.79 
159 2 105.852 1.85788 -0.765753 1034.48 
160 2 106 -1.29338 1.74215 1046.68 
161 1 111.814 -1.58972 -0.86658 1070.67 
162 1 111.527 1.85181 2.59873 1064.04 
163 1 114.62 -1.45833 2.38233 1062.35 
164 1 113.831 1.42404 -0.0534311 1047.66 
165 2 114.917 1.57891 2.33606 1047.96 
166 2 114.408 -1.21235 -0.75982 1025.04 
167 2 111.426 1.9952 -0.81663 1067.87 
168 2 111.837 -0.753015 2.31576 1036.17 
169 1 117.051 -0.72424 -1.22408 1041.72 
170 1 117.38 2.03597 2.0797 1061.7 
171 1 120.052 -1.21125 2.39715 1067.75 
172 1 120.255 1.90757 -0.830413 1052.88 
173 2 120.442 1.86684 2.10127 1072.41 
174 2 120.27 -0.997653 -0.207909 1040.83 
175 2 117.451 2.33308 -0.99029 1086.51 
176 2 117.315 -1.68264 1.75004 1056.95 
177 1 122.974 -0.816958 -0.592595 1075.12 
178 1 122.919 1.76365 2.07557 1061.75 
179 1 125.595 -1.2902 1.84675 1064.29 
180 1 125.553 2.12915 -0.307614 1060.01 
181 2 125.862 1.55876 2.82714 1093.61 
182 2 125.707 -1.02553 -0.908493 1079.81 
183 2 123.344 2.082 -1.18441 1072.77 
184 2 122.895 -0.950536 2.54716 1052.93 
185 1 128.566 -1.43534 -0.302455 1095.86 
186 1 128.487 2.03336 2.68434 1077.84 
187 1 131.514 -1.32793 1.96063 1086.05 
188 1 131.497 1.77335 -0.0929864 1094.34 
189 2 132.023 1.41253 2.5188 1072.45 
190 2 131.455 -1.21389 -0.676626 1077.61 
191 2 128.745 1.45723 -0.0641184 1085.53 
192 2 128.396 -1.49863 2.21795 1082.57 
193 1 134.186 -1.37961 -0.0150905 1085.51 
194 1 134.706 1.53907 2.2203 1073.64 
195 1 137.559 -1.9947 3.02844 1071.72 
196 1 137.561 1.25067 -0.441278 1108.93 
197 2 137.435 1.59428 2.43095 1090.73 
198 2 137.025 -1.46622 -0.677308 1070.76 
199 2 134.48 1.60259 -0.733371 1055.11 
200 2 134.66 -1.05089 2.31886 1076.1 
201 1 140.104 -1.50304 -0.525314 1137.12 
202 1 140.38 1.07316 2.56794 1082.35 
203 1 143.347 -2.04273 2.3632 1100.42 
204 1 143.161 1.58738 -0.566828 1079.92 
205 2 143.116 0.948665 2.11655 1085.69 
206 2 142.685 -1.62394 -0.326833 1117.05 
207 2 140.064 1.18186 -0.536324 1115.37 
208 2 140.417 -2.12438 2.47555 1103.01 
209 1 146.161 -1.79772 -0.389181 1077.88 
210 1 145.456 1.37134 2.34669 1091.15 
211 1 148.959 -1.29554 2.30446 1095.34 
212 1 148.72 1.23541 -0.674246 1095.34 
213 2 148.863 1.3989 3.03245 1082 
214 2 149.401 -1.60582 -0.534734 1082.28 
215 2 145.709 1.40029 -0.348338 1089.94 
216 2 146.371 -1.95898 2.2416 1097.36 
217 1 152.217 -1.83111 -0.687404 1079.29 
218 1 151.444 0.988089 2.1991 1052.6 
219 1 155.49 -1.52148 2.94535 1080.95 
220 1 155.534 1.12518 -0.176712 1077.25 
221 2 155.49 1.6369 2.51752 1090.57 
222 2 155.49 40.102 -0.811591 1062.87 
223 2 152.43 0.900558 -0.98318 1073.68 
224 2 152.286 -1.46294 2.06636 1083.57 
225 1 158.293 -1.71756 -0.855865 1105.49 
226 1 158.061 1.24808 2.53755 1083.37 
227 1 160.626 -1.75321 3.19971 1053.71 
228 1 160.813 1.10993 -0.0306597 1072.21 
229 2 160.675 1.78471 2.96308 1075.04 
230 2 160.933 -1.25681 -0.791071 1073.06 
231 2 158.215 1.67431 -0.0811225 1089.1 
232 2 158.13 -1.95009 2.94803 1078.46 
233 1 164.057 -1.57143 -0.825528 1057.08 
234 1 163.96 1.85508 2.64432 1076.17 
235 1 166.842 -1.41384 1.91604 1060.65 
236 1 167.11 2.05146 -0.834898 1053.19 
237 2 166.753 1.59266 2.09259 1069.01 
238 2 167.155 -1.76415 -0.511598 1061.05 
239 2 163.932 1.46305 -1.14365 1068.39 
240 2 163.353 -1.00157 2.19123 1059.09 
241 1 169.685 -1.7426 -1.08128 1053.87 
242 1 169.703 0.922209 2.10843 1054.1 
243 1 172.077 -1.00139 2.65008 1063.38 
244 1 172.542 1.33506 -0.781634 1031.99 
245 2 172.362 1.44006 2.01706 1026.67 
246 2 172.174 -1.88203 -0.581078 1069.48 
247 2 169.696 1.19111 -0.442295 1037.35 
248 2 169.416 -1.45496 2.62584 1050.01 
249 1 174.944 -1.98727 -0.891308 1064.02 
250 1 175.655 1.09078 3.32198 1037.55 
251 1 178.455 -1.58718 2.35489 1045.2 
252 1 177.877 0.452677 -0.291218 1048.99 
253 2 178.381 1.27528 2.61324 1059.49 
254 2 178.527 -1.91711 -0.317624 1044.16 
255 2 175.75 0.924243 -0.962152 1051.66 
256 2 175.58 -2.06197 1.74463 1067.79 
257 1 180.994 40.1328 -0.598438 1050.14 
258 1 181.919 1.00934 2.0691 1047.73 
259 1 184.775 39.735 2.27252 1046.47 
260 1 184.327 1.32579 -1.25254 1043.65 
261 2 184.525 0.964128 2.71763 1037.46 
262 2 184.869 -2.11237 -0.560197 1049.08 
263 2 181.381 0.819847 -0.865567 1065.06 
264 2 181.507 -1.94779 2.0656 1027.93 
265 1 187.528 40.0839 -0.904396 1038.19 
266 1 187.075 0.86424 2.85271 1043.21 
267 1 190.598 -1.95119 2.47819 1013.11 
268 1 189.307 2.54475 -0.69285 1023.52 
269 2 190.595 1.3134 2.54687 1042.35 
270 2 190.519 39.7541 -0.36846 1043.33 
271 2 187.242 1.05456 -1.04427 1027.13 
272 2 187.087 -1.79835 3.46974 1024.36 
273 1 192.918 -1.67518 -0.296352 1032.49 
274 1 193.266 0.955918 1.92325 1034.47 
275 1 195.81 -1.87153 2.35526 1022.41 
276 1 196.253 1.26476 -0.248258 1032.46 
277 2 195.949 0.994864 2.42653 1032.66 
278 2 195.816 -1.91388 -0.315837 1030.89 
279 2 193.422 1.54463 -0.510627 1024.3 
280 2 193.305 -1.65572 2.54744 1026.67 
281 1 199.14 -2.01394 -0.31198 1036.82 
282 1 199.023 0.813553 2.50159 1010.01 
283 1 201.77 39.9825 2.26777 988.346 
284 1 201.693 0.841515 -0.314833 1028.01 
285 2 201.816 0.681799 2.36153 1039.58 
286 2 201.685 -1.8293 -0.488831 1041.59 
287 2 199.034 1.19871 -0.214928 1014.94 
288 2 198.953 -1.7027 2.18366 1036.84 
289 1 204.893 -1.54605 -0.5589 1024.06 
290 1 204.775 1.6138 2.51099 1015.31 
291 1 207.651 -1.54527 2.45843 1029.33 
292 1 207.746 1.45974 -0.221728 1032.47 
293 2 207.722 2.02285 2.7296 1017.41 
294 2 207.54 -1.64731 -0.613395 1028.49 
295 2 205.028 1.24259 -0.323611 1015.68 
296 2 204.998 -2.07885 2.71393 1008.78 
297 1 211.103 -0.933038 -0.538675 1011.18 
298 1 210.459 1.73627 2.60843 1010.03 
299 1 213.399 -1.44204 3.01846 1027.24 
300 1 213.454 1.70075 -0.0724556 1010.54 
301 2 213.699 1.63503 2.7363 994.185 
302 2 213.705 -0.874145 -0.688199 1017.73 
303 2 210.732 1.6272 -0.382226 1013.52 
304 2 210.602 -1.14815 2.41079 1013.69 
305 1 216.559 -1.38859 -0.827811 997.716 
306 1 215.97 1.79577 2.69124 975.361 
307 1 218.865 -1.59991 2.05145 1021.14 
308 1 219.034 2.21909 0.141983 978.786 
309 2 218.936 1.74255 2.78111 997.876 
310 2 219.078 -1.71639 -0.544384 1007.27 
311 2 216.495 2.26346 -0.1966 998.644 
312 2 216.169 40.1497 2.09701 988.051 
313 1 222.259 -1.44575 -0.75996 999.228 
314 1 222.173 1.78942 2.50091 999.292 
315 1 225.011 -1.21621 2.0722 1011.39 
316 1 224.699 1.68381 -0.618324 1015.39 
317 2 224.776 1.54006 2.33735 988.242 
318 2 225.093 -0.988957 -0.641541 995.609 
319 2 221.551 1.47037 -0.747325 987.028 
320 2 222.028 -1.0085 2.04484 999.57 
321 1 227.949 -0.705619 -0.671112 999.818 
322 1 227.983 1.86312 2.4703 988.562 
323 1 230.072 -1.55375 2.43008 990.879 
324 1 230.831 1.81341 -0.670181 999.734 
325 2 230.284 1.22785 2.94627 994.881 
326 2 230.709 -1.46632 -0.857381 1003.6 
327 2 228.007 1.8673 -0.448183 987.09 
328 2 227.478 -1.5587 2.16205 959.134 
329 1 233.273 -1.20014 -0.891321 1011.85 
330 1 232.692 1.54458 2.49899 968.816 
331 1 235.987 -0.922806 2.00439 987.016 
332 1 236.616 1.60799 -0.678574 957.544 
333 2 236.442 1.29849 2.64913 987.474 
334 2 236.604 -1.37811 -0.550674 973.195 
335 2 233.482 1.51773 -0.639262 975.092 
336 2 233.7 -1.33078 2.17524 977.927 
337 1 239.213 -1.04214 -0.160256 990.842 
338 1 239.126 1.69229 2.72245 1002.87 
339 1 242.198 -1.45941 2.59634 965.171 
340 1 242.335 1.54296 -0.678934 969.446 
341 2 242.498 1.72743 2.61339 972.928 
342 2 241.851 -1.54434 -1.00737 964.832 
343 2 239.449 1.76784 -0.508807 972.089 
344 2 239.304 -1.29694 2.66565 961.61 
345 1 244.903 -1.33704 -0.874057 960.414 
346 1 245.306 1.77502 2.62869 945.979 
347 1 247.9 -1.83048 2.26954 959.117 
348 1 247.795 1.24379 -0.758834 948.765 
349 2 247.841 1.42685 2.34574 941.852 
350 2 247.814 -1.5964 -0.569094 961.003 
351 2 244.8 1.54197 -0.328579 974.194 
352 2 244.819 -2.02265 2.52755 996.28 
353 1 250.679 -1.59244 -0.185706 975.351 
354 1 250.441 1.52669 2.73497 956.63 
355 1 253.186 -1.87449 2.21968 955.404 
356 1 253.36 1.31375 -0.810617 955.535 
357 2 253.801 1.33228 1.9672 953.368 
358 2 253.514 -1.64263 -0.602042 960.838 
359 2 250.473 0.864618 -0.488741 963.22 
360 2 250.624 -1.13088 2.59657 983.514 
361 1 256.61 -0.940079 -0.630139 954.054 
362 1 256.427 1.05868 2.41439 950.703 
363 1 259.696 -1.34099 2.73095 933.131 
364 1 260.189 1.33499 -0.0193706 948.388 
365 2 259.296 1.13888 2.50636 937.853 
366 2 259.506 -1.46534 0.0543706 944.533 
367 2 256.676 1.85395 -0.65091 942.88 
368 2 256.641 -1.7578 2.208 943.745 
369 1 262.896 -1.51686 -0.528644 920.82 
370 1 262.69 1.96457 2.88377 947.795 
371 1 265.352 -1.19139 2.91893 954.973 
372 1 265.234 1.65883 -0.389462 940.909 
373 2 265.703 1.93709 2.6338 955.237 
374 2 265.294 -1.54802 0.509853 939.786 
375 2 262.887 1.40128 0.173402 941.769 
376 2 262.291 -1.7624 2.82153 954.23 
377 1 268.317 -0.988047 -0.707994 945.236 
378 1 268.385 1.5969 3.02165 938.526 
379 1 271.523 -1.10659 2.56255 936.858 
380 1 271.155 1.61688 -0.430897 922.924 
381 2 271.03 2.07998 2.68042 929.77 
382 2 271.475 -1.13169 -0.0887012 917.649 
383 2 268.622 1.94291 -0.322373 921.154 
384 2 268.802 -0.809893 3.02115 944.647 
385 1 274.112 -1.14747 -0.257785 920.611 
386 1 274.305 2.24585 2.73761 895.555 
387 1 276.914 -1.60039 2.90914 905.535 
388 1 276.622 1.36849 -0.0215757 899.795 
389 2 276.935 1.84451 2.81475 915.112 
390 2 276.363 -1.45782 0.279635 931.468 
391 2 274.231 1.86547 -0.402932 923.324 
392 2 273.989 -0.98398 3.14772 914.129 
393 1 279.957 -1.02305 -0.0274341 922.224 
394 1 279.625 1.43302 2.47102 919.249 
395 1 282.582 -1.493 2.60025 927.479 
396 1 282.566 1.94356 0.0518609 899.88 
397 2 282.284 2.15699 2.84992 924.939 
398 2 282.584 -1.15876 -0.0686299 905.181 
399 2 279.753 1.65001 -0.279734 921.539 
400 2 279.401 -1.42305 2.62335 905.44 
401 1 -4.47883 5.05452 -0.468655 914.951 
402 1 -4.11505 8.00804 2.67183 921.865 
403 1 -1.2452 4.97525 2.36601 906.87 
404 1 -1.18181 7.84436 -1.03659 886.981 
405 2 -1.15709 7.42603 2.50164 899.063 
406 2 -1.00019 4.73305 -0.994115 900.838 
407 2 -4.21864 7.61119 -0.917791 896.813 
408 2 -3.97079 4.81404 2.3014 894.579 
409 1 1.73993 3.92814 -0.753703 902.426 
410 1 1.53836 7.59868 2.26944 924.097 
411 1 3.97178 4.59972 2.71111 915.55 
412 1 5.04094 7.6576 -0.0953936 926.705 
413 2 4.43812 7.62042 2.64128 931.046 
414 2 4.87951 4.13755 -0.773049 902.915 
415 2 2.21551 7.65461 -0.780721 906.422 
416 2 1.52391 4.76735 2.05239 916.926 
417 1 7.3847 4.01517 0.149977 909.787 
418 1 7.30189 7.39025 3.09667 936.802 
419 1 10.5185 4.83143 2.41934 911.609 
420 1 10.0744 8.05347 0.214564 903.519 
421 2 10.239 7.32571 2.6597 910.876 
422 2 9.9664 4.40208 -0.717988 913.073 
423 2 7.56157 7.69884 -0.663562 923.942 
424 2 7.03029 4.59335 2.69467 922.772 
425 1 13.1618 4.83841 -0.745639 918.525 
426 1 13.1545 7.88862 2.24208 914.841 
427 1 15.7497 4.45815 2.77309 937.364 
428 1 16.4461 8.23259 -0.109656 915.167 
429 2 15.8619 8.20779 2.53044 933.307 
430 2 16.0482 5.08505 -0.197462 933.565 
431 2 12.7104 7.46765 -0.41863 922.669 
432 2 12.991 4.50253 2.46299 928.489 
433 1 19.3609 5.05946 -0.37366 907.535 
434 1 19.2888 8.01983 3.03075 922.148 
435 1 21.8745 4.91331 2.895 933.497 
436 1 22.1725 7.91708 -0.871829 924.486 
437 2 21.9238 7.65137 3.3321 927.4 
438 2 21.8503 5.02612 0.0630799 929.309 
439 2 19.0274 8.02263 -0.0554895 918.789 
440 2 19.2998 4.75869 2.50157 924.438 
441 1 24.2803 3.76885 -0.134559 945.098 
442 1 24.4131 7.77857 3.0299 937.432 
443 1 27.6897 4.94535 2.91532 943.126 
444 1 27.4474 7.91529 0.330546 959.487 
445 2 27.1278 8.25144 2.74047 954.531 
446 2 26.9967 4.92167 -0.235469 957.485 
447 2 24.5155 8.22354 -0.266784 931.501 
448 2 24.8052 4.97549 2.86278 940.394 
449 1 30.0973 4.71558 -0.080812 939.01 
450 1 29.9313 7.50262 3.30052 960.964 
451 1 33.1465 4.50805 2.84532 942.27 
452 1 32.8488 7.67391 0.157544 949.915 
453 2 33.144 7.60808 3.00644 960.274 
454 2 33.2547 4.57149 0.167046 934.062 
455 2 30.2378 7.50981 -0.11923 953.79 
456 2 30.0858 4.28826 2.77644 955.55 
457 1 35.7857 5.0322 -0.768869 953.586 
458 1 36.0075 7.65557 3.01169 963.188 
459 1 38.4246 4.98678 2.2745 968.505 
460 1 38.78 7.62216 -0.479339 950.63 
461 2 39.082 7.52978 2.59305 959.901 
462 2 39.1745 4.69409 -0.401081 966.374 
463 2 36.0124 7.58784 -0.34653 946.311 
464 2 36.0404 5.08516 2.61285 936.613 
465 1 41.9977 4.82224 -0.176717 979.431 
466 1 41.7041 7.40576 2.58232 973.574 
467 1 45.2133 4.17401 2.58475 970.628 
468 1 44.7389 7.79609 -0.432037 979.761 
469 2 44.5557 8.0502 2.00247 974.95 
470 2 45.0228 4.39346 -0.0797057 984.651 
471 2 41.617 7.69411 -0.444683 972.239 
472 2 42.5162 4.85555 2.40982 945.235 
473 1 47.5944 4.31652 -0.351828 966.964 
474 1 47.4933 7.68211 2.54489 957.917 
475 1 50.3605 4.70935 2.66047 971.837 
476 1 50.3725 7.84246 -0.802686 978.131 
477 2 50.1668 7.73529 3.32845 964.101 
478 2 50.416 4.22695 0.0725875 964.045 
479 2 47.684 7.45058 -0.479053 951.471 
480 2 47.892 4.79602 2.60254 958.902 
481 1 53.2727 5.14772 -0.414484 964.039 
482 1 53.0854 8.11484 3.37668 961.165 
483 1 55.7432 4.85318 3.25035 1001.63 
484 1 55.7872 7.72928 -0.553826 973.548 
485 2 55.4303 7.5768 2.41266 989.328 
486 2 55.7872 4.57962 -0.645704 959.385 
487 2 52.8684 7.45404 -1.03615 964.229 
488 2 53.1459 4.68013 3.19638 979.047 
489 1 58.7199 4.50485 -0.586065 982.433 
490 1 58.2972 7.82168 3.00706 1008.03 
491 1 61.8658 4.71658 2.89288 999.056 
492 1 61.6807 7.41879 -0.786306 992.821 
493 2 62.0757 7.92687 2.26745 983.69 
494 2 61.7602 4.48634 -0.0991923 993.652 
495 2 58.7925 7.23999 -0.927699 982.401 
496 2 59.1903 5.31921 2.87639 994.67 
497 1 64.8061 4.71884 -0.416317 996.363 
498 1 64.7964 7.96257 1.9586 971.583 
499 1 67.8183 5.06532 2.52723 986.4 
500 1 67.4117 7.71953 0.00215536 1015.04 
501 2 68.1084 7.98824 2.3171 995.247 
502 2 67.7698 5.02962 -0.634871 1002.33 
503 2 64.7994 7.98911 -0.466279 999.492 
504 2 65.1801 5.51794 2.54562 1000.71 
505 1 70.3218 4.84516 -0.560381 1005.88 
506 1 70.683 8.19838 2.68099 989.764 
507 1 73.4007 4.83573 2.10391 1001.9 
508 1 73.5857 8.02522 -0.255782 1004.64 
509 2 73.3774 7.74474 2.46137 990.872 
510 2 73.3148 5.31098 -0.417803 1004.1 
511 2 70.7084 7.92112 -0.657053 994.323 
512 2 70.6565 4.74463 2.47079 994.182 
513 1 77.2452 4.97831 -0.87676 995.362 
514 1 76.2692 7.61711 2.50671 993.486 
515 1 79.251 4.30841 1.74244 998.973 
516 1 79.2338 8.18719 -1.01642 997.704 
517 2 79.0244 7.99625 2.30484 1003.68 
518 2 79.5439 5.30968 -0.795376 1002.96 
519 2 76.547 8.11345 -1.06389 1008.13 
520 2 76.3382 4.75613 2.50042 1013.44 
521 1 82.0238 4.63302 -0.905546 1017.1 
522 1 82.0645 7.43715 2.26784 1012.02 
523 1 85.2129 4.77974 2.4227 1026.61 
524 1 84.5982 8.37248 -0.302552 1042.01 
525 2 84.5881 8.5589 2.51779 1021.64 
526 2 85.4811 5.47219 -0.163758 1010.9 
527 2 82.3179 8.03115 -0.955425 998.322 
528 2 81.9247 4.68246 2.19241 994.918 
529 1 87.7915 5.15413 -0.74727 1031.55 
530 1 87.875 8.2552 2.19756 1004.15 
531 1 90.4431 4.31101 1.88881 1023.53 
532 1 90.9876 8.62568 -0.894862 1011.99 
533 2 91.2074 8.62014 2.02766 1042.33 
534 2 90.8645 4.78782 -1.28259 1005.36 
535 2 88.2025 8.82052 -0.677165 1036.25 
536 2 88.0156 5.80416 2.31803 1006.77 
537 1 93.5253 4.36476 -0.934988 1011.85 
538 1 93.5081 7.84333 2.14645 1044.98 
539 1 96.6257 5.37139 1.37023 1032.04 
540 1 96.6659 8.07255 -0.658749 1032.99 
541 2 96.4964 7.93582 1.74216 1038.04 
542 2 96.2014 4.82823 -1.26299 1045.37 
543 2 94.0138 8.08289 -0.826563 1032.54 
544 2 93.0274 4.68204 2.05567 1014.96 
545 1 99.4701 4.90671 -1.39117 1026.23 
546 1 100.159 8.07481 1.97957 1046.24 
547 1 102.47 4.76624 1.92252 1032.73 
548 1 102.834 7.45313 16.3225 1048.54 
549 2 102.77 7.98046 2.6402 1055.1 
550 2 102.81 4.45237 -1.11028 1027.2 
551 2 99.9696 7.53585 -1.57556 1027.64 
552 2 99.5409 4.98764 2.19887 1025.31 
553 1 105.655 4.49291 -0.917399 1042.73 
554 1 106.227 7.85891 1.99511 1062.63 
555 1 108.524 4.44097 2.20346 1065.49 
556 1 108.448 7.88866 -1.07917 1068.68 
557 2 109.032 8.08826 2.19908 1055.2 
558 2 108.475 5.20936 -0.572476 1050.03 
559 2 105.666 7.59055 -0.992395 1033.42 
560 2 106.02 5.13334 2.30271 1046.61 
561 1 111.267 4.84779 -0.5155 1069.68 
562 1 111.394 7.82882 2.13692 1068.1 
563 1 114.358 4.66177 2.00101 1047.66 
564 1 114.194 7.75946 -0.516465 1058.32 
565 2 114.395 8.04669 2.24866 1054.88 
566 2 114.17 5.15508 -0.730237 1055.8 
567 2 111.661 7.65011 -1.18063 1049.95 
568 2 111.514 4.6986 2.29499 1066.82 
569 1 117.143 4.96493 -1.06971 1022.09 
570 1 117.11 8.3378 2.30664 1048.02 
571 1 119.626 5.4326 1.90838 1036 
572 1 120.047 8.16522 -0.49969 1057.44 
573 2 119.65 8.06893 2.38308 1055.41 
574 2 120.197 4.96525 -0.593643 1027.99 
575 2 117.215 7.83272 -0.398876 1047.96 
576 2 117.124 4.51729 2.44316 1020.05 
577 1 123.61 4.74802 -0.506803 1066.97 
578 1 123.473 6.97713 2.80454 1076.74 
579 1 126.023 4.34849 3.08037 1071.42 
580 1 126.499 7.11268 -0.34647 1080.53 
581 2 126.263 7.00868 2.56789 1075.26 
582 2 126.195 4.51354 -0.806166 1079.58 
583 2 122.794 7.49327 -0.0990061 1058.8 
584 2 123.494 4.5286 2.58759 1047.07 
585 1 128.788 4.45423 -0.769869 1085.81 
586 1 129.243 8.27124 2.46315 1078.87 
587 1 131.734 4.39585 2.68242 1088.24 
588 1 131.76 8.25703 -0.738572 1100.82 
589 2 131.759 7.92493 1.98234 1111.64 
590 2 131.403 4.29377 -0.477387 1093.48 
591 2 129.301 7.94051 -0.475858 1086.58 
592 2 129.217 4.38054 2.55379 1114.62 
593 1 135.134 4.59391 -0.671145 1078.3 
594 1 135.027 8.04014 1.90343 1096.64 
595 1 137.439 4.43196 2.57165 1087.01 
596 1 137.985 7.36796 -1.30021 1112.64 
597 2 137.39 7.41204 1.41626 1097.95 
598 2 137.467 4.08507 -0.178728 1089.73 
599 2 134.698 7.48385 -0.964816 1096.96 
600 2 134.865 4.28672 2.63741 1070.63 
601 1 140.501 3.67062 -0.410639 1105.06 
602 1 140.502 7.19828 1.96461 1081.66 
603 1 143.255 3.72713 2.53911 1092.73 
604 1 142.565 6.744 -1.12129 1073.47 
605 2 142.995 7.35535 2.60325 1089.44 
606 2 143.158 4.56404 0.108968 1098.98 
607 2 140.265 8.26836 -0.282229 1095.01 
608 2 140.049 3.74444 2.22971 1095.78 
609 1 146.27 1.77285 14.6545 1076.23 
610 1 146.451 4.69033 -0.507119 1076.16 
611 1 148.821 4.04893 3.02587 1076.89 
612 1 149.181 7.93811 -0.918364 1090.55 
613 2 148.635 7.43232 2.21622 1078.29 
614 2 148.923 3.88478 -0.517563 1083.22 
615 2 146.531 7.59076 -0.761583 1087.33 
616 2 146.03 3.95244 2.70817 1058.1 
617 1 151.811 3.55896 -0.930741 1083.36 
618 1 151.909 7.67315 2.05269 1092.07 
619 1 154.804 4.40949 1.90224 1087.92 
620 1 155.287 7.78967 -0.272786 1072.84 
621 2 154.948 8.02261 2.56093 1085.08 
622 2 155.148 4.74176 -0.458057 1093.75 
623 2 152.618 7.95484 -0.234542 1082.2 
624 2 152.066 4.6194 2.29878 1100.94 
625 1 157.737 4.80268 -0.675307 1076.44 
626 1 158.041 7.70837 2.93539 1067.39 
627 1 160.545 4.60564 2.57988 1049.88 
628 1 161.169 7.5752 -0.358807 1070.85 
629 2 161.299 7.49419 3.0446 1064.52 
630 2 160.77 4.70938 -0.161038 1062.63 
631 2 158.329 7.52434 0.33224 1075.18 
632 2 157.513 5.00862 2.59374 1081.22 
633 1 163.558 4.21478 -0.561996 1064.02 
634 1 163.603 6.95557 3.2132 1082.72 
635 1 167.391 4.52545 2.51706 1065.91 
636 1 166.484 6.7458 0.266911 1071.91 
637 2 166.828 7.25878 2.72415 1061.26 
638 2 167.387 4.75205 -0.839201 1055.11 
639 2 163.934 7.32533 -0.188209 1078.12 
640 2 164.53 4.31544 2.0455 1072.35 
641 1 170.137 4.19064 -0.255517 1054.64 
642 1 169.808 7.0268 2.70519 1041.29 
643 1 172.605 4.19873 1.9092 1060.36 
644 1 172.967 8.04529 0.0479215 1040.26 
645 2 172.661 7.11684 2.87647 1051.63 
646 2 172.574 4.10816 -0.787515 1036.03 
647 2 170.262 6.86915 0.154145 1055.29 
648 2 170.036 4.15931 2.47874 1061.46 
649 1 175.502 3.82576 -0.764708 1052.62 
650 1 175.633 7.30519 2.88934 1051.73 
651 1 178.324 3.75123 2.03211 1055.76 
652 1 178.629 7.28821 -0.624665 1057.07 
653 2 178.837 7.13346 2.66795 1051.95 
654 2 178.202 4.17041 -0.387799 1049.1 
655 2 175.594 7.54545 -0.227714 1037.77 
656 2 175.401 3.9577 2.78922 1063.88 
657 1 181.513 4.33108 -0.760288 1065.14 
658 1 181.872 7.61068 2.59419 1039.27 
659 1 184.119 4.06383 2.2373 1029.76 
660 1 183.933 7.84383 -1.02041 1012.76 
661 2 184.414 7.09909 2.73414 1062.11 
662 2 184.154 3.9421 -0.732222 1051.62 
663 2 181.289 7.24183 -0.862082 1025.13 
664 2 181.865 3.62868 2.32716 1073.01 
665 1 186.628 4.5888 -0.301506 1028.67 
666 1 186.869 6.86739 2.75827 1022.29 
667 1 190.536 4.28795 2.38592 1036 
668 1 189.377 7.59897 -0.496898 1027.83 
669 2 189.624 7.71691 2.77175 1041.21 
670 2 190.047 5.0909 -0.157735 1030.39 
671 2 186.602 7.80236 -0.941088 1042.98 
672 2 186.626 3.92747 2.02018 1048.92 
673 1 192.883 4.18669 -0.515875 1042.53 
674 1 192.905 8.2364 1.87429 1017.34 
675 1 195.472 4.53883 2.70395 1013.87 
676 1 195.739 7.87852 -0.741976 1032.67 
677 2 195.805 7.34543 1.80236 1026.21 
678 2 196.083 4.31204 -0.368152 1025.96 
679 2 193.107 8.01455 -0.667868 1025.89 
680 2 193.096 4.01582 2.28252 1022.35 
681 1 198.652 4.44332 -0.282494 1022.99 
682 1 198.812 7.06512 2.17818 1033.38 
683 1 201.826 3.96066 2.39978 1028.39 
684 1 201.354 7.17685 -0.0440725 1023.59 
685 2 201.933 7.62571 2.11667 1040.61 
686 2 201.926 4.50326 -0.182916 1031.77 
687 2 198.85 7.35023 -0.544184 1025.07 
688 2 199.616 4.79387 2.63863 1018.44 
689 1 204.737 4.65646 -0.0713044 1027.94 
690 1 204.209 7.72286 3.29365 1012.9 
691 1 207.69 4.87694 2.54287 1013.68 
692 1 207.753 7.29697 -0.373737 1002.48 
693 2 207.372 7.37031 2.69873 997.768 
694 2 207.923 4.66453 -0.352181 1007.43 
695 2 204.536 7.12532 -0.749536 1006.64 
696 2 204.77 4.38562 2.54429 1016.48 
697 1 210.635 4.67895 -0.191158 1014.54 
698 1 210.568 7.69264 2.32901 1008.76 
699 1 213.349 5.29232 3.37734 1016.79 
700 1 213.636 7.68348 -0.896977 1005.18 
701 2 213.213 8.15506 3.04493 1003.32 
702 2 213.592 4.97841 -0.237368 1020.58 
703 2 210.415 7.28124 -0.115944 1007.63 
704 2 210.684 4.71354 2.7568 992.222 
705 1 216.419 5.12096 -0.501186 994.912 
706 1 216.355 8.31114 2.56398 1014.12 
707 1 218.932 5.0489 2.57206 962.88 
708 1 219.66 7.54216 -0.936051 999.907 
709 2 219.327 8.19834 2.48006 975.513 
710 2 219.272 4.93465 -0.686111 1001.61 
711 2 216.399 7.45651 -0.659379 1000.92 
712 2 216.26 4.77767 2.69195 1005.4 
713 1 222.253 4.39161 -0.210021 972.975 
714 1 222.118 7.54612 2.6218 1000.88 
715 1 225.091 4.81128 2.43191 984.538 
716 1 224.698 7.66272 -0.32249 975.367 
717 2 224.874 7.57168 2.17638 1009.96 
718 2 224.978 4.37836 -0.429801 988.525 
719 2 222.055 7.82644 -0.468917 1010.05 
720 2 222.475 4.39396 2.19807 991.621 
721 1 227.858 4.80028 -0.66715 990.594 
722 1 227.655 7.92444 2.6098 974.183 
723 1 230.449 4.36921 2.72666 983.563 
724 1 230.245 7.97445 -0.370486 983.78 
725 2 230.791 7.3142 2.2955 982.93 
726 2 230.495 4.40381 -0.76181 956.671 
727 2 227.568 8.10546 -0.45252 993.303 
728 2 227.474 4.68309 2.40467 978.81 
729 1 233.506 4.70463 -1.02212 964.022 
730 1 233.64 7.22451 1.96292 990.145 