ITEM: TIMESTEP
8500000
ITEM: NUMBER OF ATOMS
8400
ITEM: BOX BOUNDS pp pp pp
-5.9099547646241319e+00 2.8359995476463484e+02
-2.1446273254920634e+00 4.0174627325491812e+01
-1.7757301867509554e+00 1.6325730186751606e+01
ITEM: ATOMS id type x y z f_TolTpA 
1 1 -5.06788 -1.74416 -0.848193 882.353 
2 1 -4.10229 1.10978 2.64732 914.778 
3 1 -1.56405 -1.53481 2.15367 899.531 
4 1 -1.43594 1.19791 -0.423744 873.045 
5 2 -1.46875 1.31159 2.49346 869.114 
6 2 -0.801182 -1.41555 -0.914398 900.476 
7 2 -4.59819 0.946548 -0.56019 913.264 
8 2 -4.40053 -1.47748 2.61486 907.413 
9 1 1.79629 -1.35863 -0.798885 909.687 
10 1 1.70053 0.905546 2.35095 878.198 
11 1 4.64755 -1.60734 2.44175 916.942 
12 1 3.84863 1.78574 -0.58878 897.55 
13 2 4.37312 1.48127 2.24556 912.085 
14 2 4.57532 -1.94766 -0.446056 933.358 
15 2 1.17169 1.44925 -0.224122 898.929 
16 2 1.68663 -1.83298 2.50502 890.696 
17 1 7.20077 -1.8957 -0.113183 914.057 
18 1 7.55492 1.80958 2.07284 916.049 
19 1 10.4709 -1.36464 2.29917 931.394 
20 1 10.5038 1.35005 -0.865891 906.998 
21 2 10.1058 1.47262 2.53885 919.529 
22 2 9.8176 -2.02419 -0.203184 930.139 
23 2 7.61251 1.26624 -0.641784 900.193 
24 2 7.34776 39.9034 2.40905 921.031 
25 1 13.2429 -2.00173 -0.023659 920.206 
26 1 13.3655 1.33308 2.44613 935.724 
27 1 16.09 39.8874 2.42637 919.474 
28 1 15.6063 1.06237 -1.0434 935.842 
29 2 15.802 1.39715 2.24741 939.555 
30 2 15.8578 -1.82241 -0.621023 919.557 
31 2 13.0402 0.776978 -0.685481 930.373 
32 2 13.5019 -1.54545 2.60712 932.669 
33 1 18.6934 -1.69235 -0.252768 928.091 
34 1 18.7728 0.734899 2.40536 937.365 
35 1 21.6252 -1.44602 2.47645 935.834 
36 1 21.3857 1.64558 -0.603869 934.941 
37 2 21.363 1.321 2.63764 937.667 
38 2 21.6328 -1.75109 -0.700766 936.217 
39 2 18.7154 1.13044 -0.251899 922.187 
40 2 18.9424 -2.03997 2.25454 913.506 
41 1 24.9529 -1.58445 -0.555513 937.712 
42 1 24.4268 1.48796 2.52993 938.023 
43 1 27.446 -1.99489 2.01288 953.191 
44 1 26.9741 1.67294 -0.73522 922.45 
45 2 27.5109 1.50262 2.34563 956.51 
46 2 27.9415 -1.20813 -0.531209 963.216 
47 2 24.2183 1.57385 -0.874779 931.51 
48 2 24.2623 -1.28263 1.88423 940.091 
49 1 30.4825 -1.30697 -0.646532 944.912 
50 1 30.8241 1.69733 2.41204 953.146 
51 1 32.9325 -1.40387 2.40387 946.478 
52 1 33.7183 1.51817 -0.384961 952.177 
53 2 33.2655 1.97647 2.26063 956.83 
54 2 33.1751 -1.11825 -0.393245 954.816 
55 2 29.9479 1.29487 -1.0899 953.667 
56 2 30.561 -0.998161 2.84259 958.55 
57 1 35.7764 -1.73369 -0.189754 949.855 
58 1 36.0696 1.28921 2.54046 954.594 
59 1 38.8884 -1.68827 2.55428 956.347 
60 1 38.7963 0.942327 -0.479684 956.596 
61 2 38.8452 1.16127 2.79933 959.418 
62 2 38.4696 -1.61665 -0.149376 971.26 
63 2 36.3381 1.3363 -0.468675 946.707 
64 2 35.819 -1.39244 2.29447 951.406 
65 1 41.8878 -1.30401 -0.285709 981.558 
66 1 41.9261 1.06553 2.077 970.01 
67 1 44.8124 -1.24654 2.58262 966.315 
68 1 44.7074 1.81763 -0.609569 967.659 
69 2 44.6222 1.57151 2.28224 954.88 
70 2 44.3551 -1.47423 -1.32976 978.26 
71 2 41.621 1.08525 -0.566609 954.262 
72 2 42.112 -1.82318 2.3399 963.882 
73 1 47.6167 -1.2065 -0.892882 973.559 
74 1 47.6921 1.49374 2.45686 971.879 
75 1 50.304 -0.847444 2.65213 992.659 
76 1 50.9734 1.86476 -1.26724 976.214 
77 2 50.3144 1.78042 3.15153 1000.34 
78 2 50.8779 -1.26564 -0.787315 988.749 
79 2 48.6708 1.27181 -0.61772 959.922 
80 2 47.9068 -1.16382 2.666 967.115 
81 1 53.5389 -1.72864 -1.11341 993.201 
82 1 53.7582 1.74235 2.1853 997.34 
83 1 55.9256 -1.04231 2.50131 987.605 
84 1 56.2128 1.2034 -0.757281 1016.83 
85 2 56.4473 1.87161 2.16221 991.51 
86 2 56.0628 -1.46049 -1.08678 1005.77 
87 2 53.7315 1.80954 -0.418416 973.544 
88 2 53.4674 -0.784304 2.73217 974.602 
89 1 59.1139 -1.40964 -0.641428 996.578 
90 1 59.2849 1.63519 2.582 990.982 
91 1 62.1025 -0.949478 2.26166 998.109 
92 1 62.0521 1.53623 -0.506796 999.489 
93 2 61.7711 1.54753 2.80022 985.485 
94 2 62.0763 -1.30764 -0.409658 990.449 
95 2 59.1528 1.61435 -0.773128 995.752 
96 2 59.0329 -0.919648 1.93094 990.946 
97 1 65.117 -0.836029 -0.57115 999.835 
98 1 65.481 1.96675 2.14286 1012.64 
99 1 67.9661 -1.40826 2.24457 995.347 
100 1 67.9393 1.91452 -0.720875 991.501 
101 2 67.8576 1.44845 2.39114 1017.48 
102 2 67.8352 -0.97765 -0.379366 983.476 
103 2 64.7217 2.15233 -0.80286 997.628 
104 2 64.8616 -1.13172 2.17782 999.105 
105 1 70.7827 -0.56482 -0.452958 1028.45 
106 1 70.4655 1.46845 2.26891 1000.4 
107 1 73.9387 -1.27153 3.0158 1017.21 
108 1 73.6905 1.95169 -0.644332 1005.71 
109 2 73.7238 2.42761 1.80574 984.708 
110 2 73.7665 -0.499343 -0.639898 1018.12 
111 2 70.43 2.06792 -0.983238 991.952 
112 2 71.1708 -1.15632 2.24817 1015.14 
113 1 76.941 -0.452455 -0.503594 1010.32 
114 1 76.41 1.97961 1.95316 992.932 
115 1 79.1947 -1.60336 2.37045 1006.87 
116 1 79.6589 2.02135 -0.714441 1001.11 
117 2 79.6775 1.97405 2.32808 1005.52 
118 2 79.4803 -1.17581 -0.466799 1016.03 
119 2 76.7229 2.41604 -0.802076 990.417 
120 2 76.4686 -0.691657 2.28387 1010.87 
121 1 82.4325 -1.01681 -0.194307 1023.56 
122 1 82.1767 2.35523 2.23567 1035.79 
123 1 85.1153 -1.1179 2.2424 1026.71 
124 1 85.172 2.11936 -0.88203 1008.59 
125 2 85.3762 1.97783 1.50242 1021.79 
126 2 85.1619 -1.06311 -1.05454 997.985 
127 2 82.3721 1.99217 -0.705056 1010.12 
128 2 82.5559 -0.59861 2.50318 1029.46 
129 1 87.9599 -1.43295 -0.858266 1015.62 
130 1 88.8362 1.73517 1.92471 1017.18 
131 1 91.0227 -1.14074 2.64611 1021.05 
132 1 91.6509 1.93603 0.0724588 1000.71 
133 2 91.3085 1.57529 2.89101 1019 
134 2 91.019 -0.994467 -0.426428 1040.95 
135 2 88.9051 2.10444 -1.23807 1013.58 
136 2 88.1943 -0.982464 1.90217 1016.21 
137 1 93.9241 -1.18493 -0.683903 1047.89 
138 1 93.7885 1.75232 2.63851 1018.59 
139 1 96.5251 -0.715349 2.46607 1037.55 
140 1 97.4699 1.7308 0.00853374 1047.3 
141 2 97.78 1.46648 2.61832 1029.65 
142 2 96.721 -1.03779 -0.427931 1050.28 
143 2 93.8385 1.47415 -0.406658 1037.9 
144 2 93.9051 -0.979519 2.26074 1026.22 
145 1 99.7017 -1.03783 -0.461487 1041.42 
146 1 100.264 2.15618 2.50837 1051.68 
147 1 103.011 -1.4044 2.42218 1048.66 
148 1 102.892 1.51048 0.142524 1058.82 
149 2 102.741 2.58204 2.64339 1054.4 
150 2 102.975 -1.1629 -0.868487 1030.07 
151 2 100.263 1.83426 -0.097528 1039.15 
152 2 100.186 -1.32131 2.37607 1048.18 
153 1 105.658 -1.01793 -0.984431 1046.95 
154 1 105.428 2.46594 2.82528 1051.95 
155 1 108.034 -0.650009 2.70933 1045.69 
156 1 108.739 2.52127 -0.187456 1052.57 
157 2 108.716 2.08384 2.50953 1076.84 
158 2 108.324 -0.740007 -0.97065 1049.21 
159 2 105.761 1.98108 0.333428 1043.73 
160 2 105.566 -1.71143 2.65424 1028.45 
161 1 110.797 -1.1006 -0.599259 1070.48 
162 1 111.539 1.80757 2.81626 1040.81 
163 1 114.295 -0.783026 2.41375 1057.84 
164 1 114.215 2.08243 -0.437794 1044.31 
165 2 114.372 1.97318 2.57172 1054.51 
166 2 114.52 -0.600303 -0.748358 1060.88 
167 2 111.546 1.88211 0.0211259 1050.15 
168 2 111.347 -1.13274 2.35649 1047.88 
169 1 117.625 -1.03585 -0.236177 1073.92 
170 1 117.394 2.10377 2.40609 1042.32 
171 1 120.509 -0.95854 2.55965 1061.05 
172 1 119.893 2.18404 -0.435439 1065.16 
173 2 119.96 1.92406 2.23762 1096.15 
174 2 120.277 -0.605952 -0.471587 1073.18 
175 2 117.214 2.33595 -0.547132 1055.18 
176 2 117.75 -0.843604 2.4876 1052.37 
177 1 123.363 -1.00583 -0.943671 1064.16 
178 1 122.684 2.12979 2.01137 1083.2 
179 1 125.702 -1.28246 3.13325 1085.86 
180 1 125.898 1.77942 -0.195982 1072.13 
181 2 125.343 1.81401 2.44578 1076 
182 2 126.025 -1.05384 -0.936766 1073.63 
183 2 122.763 2.18551 -0.402675 1062.37 
184 2 122.937 -1.24752 3.11063 1065.05 
185 1 128.718 -1.47372 -0.611826 1077.41 
186 1 129.208 1.65124 2.94606 1070.49 
187 1 132.223 -1.03201 2.83007 1080.28 
188 1 132.129 1.80059 -0.404266 1081.96 
189 2 131.963 2.20796 2.68519 1075.09 
190 2 131.532 -0.819533 -0.340918 1082.39 
191 2 128.577 2.15888 0.167809 1083.21 
192 2 128.449 -1.12164 3.37743 1082.23 
193 1 134.662 -1.15235 -0.212871 1089.1 
194 1 135.029 1.83871 2.3858 1075.65 
195 1 137.341 -1.53673 2.64831 1068.24 
196 1 138.208 2.34174 -0.366677 1073.32 
197 2 137.516 2.28035 2.65086 1090.02 
198 2 137.496 -0.794016 0.014129 1081.98 
199 2 134.775 2.42415 -0.348806 1086.46 
200 2 134.848 -0.517154 2.35252 1075.89 
201 1 140.413 -0.921632 -0.0763387 1091.76 
202 1 140.401 1.88141 2.4326 1093.3 
203 1 144.172 -0.545933 2.54658 1096.31 
204 1 143.761 2.1111 -0.368571 1096.6 
205 2 143.613 2.0735 2.42992 1100.38 
206 2 143.481 -0.719313 -0.916482 1080.57 
207 2 140.897 1.93422 -0.446494 1084.38 
208 2 140.803 -0.864695 2.7197 1081.51 
209 1 146.771 -1.16849 -0.57722 1063.75 
210 1 146.413 2.14509 2.19506 1071.18 
211 1 149.417 -0.91919 2.36143 1087.43 
212 1 149.429 2.12481 -0.285462 1082.75 
213 2 149.236 2.25882 2.12204 1075.73 
214 2 149.213 -1.17612 -0.695414 1075.04 
215 2 146.754 1.96656 -0.297233 1090.57 
216 2 146.593 -1.10229 2.22552 1082.91 
217 1 152.438 -1.12671 -1.16743 1084.32 
218 1 152.284 2.32611 1.88479 1065.18 
219 1 154.539 -1.58374 2.56891 1060.2 
220 1 155.732 2.18406 -0.798727 1062.36 
221 2 155.476 2.22546 1.97968 1085.2 
222 2 155.002 -1.62807 -0.988169 1059.36 
223 2 152.18 2.41421 -0.864012 1065.83 
224 2 151.729 -0.856642 2.20131 1062.96 
225 1 158.035 -1.51751 -0.222513 1061.99 
226 1 158.421 2.35687 2.53197 1060.6 
227 1 160.494 -1.51205 2.61339 1058.84 
228 1 160.835 1.70117 -0.446655 1070.83 
229 2 160.994 1.89168 2.69482 1078.02 
230 2 161.06 -1.25591 -0.373808 1063.11 
231 2 158.196 2.2405 -0.700173 1048.83 
232 2 157.483 -1.4107 2.26466 1052 
233 1 164.029 -1.06024 -0.478631 1042.4 
234 1 163.628 1.63865 2.4194 1065.98 
235 1 166.759 -1.55471 2.80515 1060.46 
236 1 166.485 2.00773 -0.593381 1045.54 
237 2 166.717 1.2621 2.01242 1068.73 
238 2 166.631 -0.940842 -1.22514 1066.78 
239 2 163.475 1.96823 -0.495666 1046.5 
240 2 163.684 -1.4703 2.76986 1052.55 
241 1 169.159 -0.671622 -0.825684 1043.6 
242 1 169.342 1.5775 2.7812 1054.33 
243 1 172.219 -0.842792 3.3981 1058.43 
244 1 172.276 1.98747 -0.812106 1037.57 
245 2 171.781 2.3452 3.3203 1050.93 
246 2 172.127 -0.33793 -0.266537 1051.99 
247 2 169.803 2.23037 -1.0138 1040 
248 2 169.56 -0.997539 2.84812 1068.58 
249 1 174.449 -1.01578 -0.944139 1048.97 
250 1 174.651 2.08208 2.87829 1059.12 
251 1 178.185 -0.801197 2.52536 1028.6 
252 1 178.358 2.17639 -0.276542 1050.89 
253 2 178.471 1.85919 2.37535 1022.38 
254 2 177.993 -1.31315 -0.623724 1027.9 
255 2 174.895 1.98068 -0.858835 1024.5 
256 2 175.21 -0.998384 3.24532 1046.61 
257 1 181.028 -1.66124 -0.828906 1045.12 
258 1 180.896 1.96751 2.45246 1022.77 
259 1 183.505 -1.61137 2.28572 1049.92 
260 1 183.791 1.36482 -0.321011 1026.92 
261 2 183.943 1.81177 3.15252 1028.66 
262 2 183.565 -1.49362 -0.379856 1018.56 
263 2 181.303 1.91821 0.00394289 1020.32 
264 2 180.789 -1.39673 1.94603 1039.08 
265 1 187.011 -1.54019 -0.651208 1028.52 
266 1 186.956 1.13961 2.50492 1020.88 
267 1 189.784 -1.16396 2.42984 1022.36 
268 1 189.126 1.63483 -0.551038 1016.67 
269 2 189.957 1.24346 2.78287 1004.17 
270 2 189.666 -1.41924 -0.0471523 1006.98 
271 2 186.713 1.42481 -0.726861 1040.19 
272 2 186.534 -1.2822 2.59339 1018.49 
273 1 192.526 -1.95612 -0.497969 1012.14 
274 1 193.158 1.38103 2.71637 995.426 
275 1 195.72 -1.43692 2.6099 1006.84 
276 1 195.13 1.58592 -0.448051 1008.33 
277 2 195.636 1.38891 2.78745 1003.68 
278 2 195.707 40.1277 -0.524646 1028.14 
279 2 192.378 1.56348 -0.267836 1005.16 
280 2 193.082 -1.70046 2.74951 1023.01 
281 1 197.965 -1.27333 -0.747058 1011.23 
282 1 197.953 1.18046 2.0288 1003.47 
283 1 201.539 -1.56362 2.18531 1007.27 
284 1 201.895 0.881173 -0.391943 1005.96 
285 2 200.984 1.33512 2.76782 996.824 
286 2 202.058 -1.74622 -0.804024 995.843 
287 2 198.455 1.43548 -0.633344 1015.33 
288 2 198.489 -1.63426 2.25188 1012.76 
289 1 204.391 -1.14595 -0.637779 1012.91 
290 1 203.973 1.94764 2.94715 1019.15 
291 1 207.324 -2.03848 2.48374 1002.36 
292 1 207.409 1.89167 -0.361437 1005.63 
293 2 207.255 1.82953 2.24112 1011.32 
294 2 206.943 40.0941 -0.864736 1013.91 
295 2 204.574 1.33057 -0.191388 1014.23 
296 2 204.004 -0.962465 2.88604 994.333 
297 1 210.552 -1.94085 -0.715478 987.848 
298 1 210.362 0.941828 2.10964 1010.6 
299 1 212.969 -1.78293 2.28623 992.623 
300 1 212.842 0.973955 -1.03639 980.171 
301 2 212.968 1.03718 1.91566 1012.37 
302 2 213.273 40.0367 -0.594008 983.027 
303 2 210.335 0.714197 -0.878932 1033.38 
304 2 209.992 -1.80464 2.12661 980.933 
305 1 215.836 -1.86043 -0.40539 1016.87 
306 1 216.181 1.56757 1.60183 989.436 
307 1 219.024 -1.90922 2.31174 1002.01 
308 1 219.084 1.29853 -0.630252 987.613 
309 2 219.097 0.891133 2.39724 1000.45 
310 2 218.391 -1.93367 -0.570768 997.571 
311 2 215.696 0.97169 -0.804341 997.017 
312 2 216.127 -1.70498 2.25061 993.552 
313 1 220.967 -1.88376 -0.823472 977.411 
314 1 221.838 1.20749 2.4548 1002.73 
315 1 224.289 -1.74844 2.24812 969.955 
316 1 224.491 1.1244 -0.808568 969.996 
317 2 224.719 1.11446 2.37634 990.587 
318 2 225.122 -1.55794 -0.21739 974.309 
319 2 221.622 1.35916 -1.08384 984.881 
320 2 221.387 -1.60106 2.38556 979.336 
321 1 227.972 -1.15368 -0.0793328 968.851 
322 1 227.412 1.08928 2.73211 965.864 
323 1 230.9 -1.11986 2.62344 989.132 
324 1 231.272 1.01551 -0.814775 981.342 
325 2 230.628 1.59049 2.48543 989.956 
326 2 230.65 -1.65962 -0.21943 998.506 
327 2 227.763 1.37636 -0.58842 978.189 
328 2 228.025 -1.5811 2.57864 972.661 
329 1 233.746 40.0608 -0.284449 981.964 
330 1 233.88 1.12956 2.55855 960.089 
331 1 236.23 -1.75265 3.36055 975.352 
332 1 236.274 0.827115 -0.194932 968.537 
333 2 236.517 1.24022 2.69303 981.45 
334 2 236.14 -2.03554 0.605078 979.034 
335 2 233.771 0.83774 -0.577809 971.961 
336 2 233.567 -1.92723 3.29212 988.444 
337 1 239.359 40.0783 0.000437109 946.348 
338 1 239.21 1.12356 2.71485 960.994 
339 1 241.991 -2.06754 3.04168 945.265 
340 1 242.342 0.932315 -0.0928155 960.432 
341 2 242.051 1.03523 3.44851 951.27 
342 2 242.049 39.9828 -0.00827541 974.979 
343 2 239.188 0.968334 -0.307258 951.013 
344 2 238.948 -1.71468 3.35662 975.215 
345 1 244.792 40.0565 0.11254 966.247 
346 1 245.085 1.31379 2.39851 949.348 
347 1 248.145 -1.86418 2.5062 990.605 
348 1 247.563 1.12112 -0.414269 963.525 
349 2 248.262 1.42279 2.28037 956.865 
350 2 247.466 -1.77026 -0.376848 945.319 
351 2 244.65 1.29133 -0.142206 964.626 
352 2 244.854 -1.79947 2.77039 961.884 
353 1 250.735 -1.49159 -0.353686 960.941 
354 1 251.248 1.52092 2.03151 948.249 
355 1 253.583 -1.96162 1.94135 959.849 
356 1 254.032 1.47637 -1.01757 973.447 
357 2 254.133 2.13066 1.88066 927.346 
358 2 254.171 -1.58801 -0.58104 948.739 
359 2 250.63 1.38463 -0.824386 977.53 
360 2 251.044 -1.58579 2.13657 958.672 
361 1 256.877 -1.1998 -0.0519838 969.096 
362 1 256.454 1.71448 2.76135 950.742 
363 1 259.8 -0.739915 2.40173 940.233 
364 1 259.466 1.51828 -0.671195 964.813 
365 2 259.588 1.77445 2.5767 964.296 
366 2 259.336 -0.99408 -0.0875236 980.566 
367 2 256.663 1.50302 -0.958753 956.634 
368 2 256.201 -1.52719 2.73905 949.223 
369 1 262.34 -1.91266 -0.304172 946.717 
370 1 262.484 1.55364 1.79222 948.535 
371 1 265.158 -1.84698 2.21107 932.957 
372 1 265.395 1.5316 -0.430465 938.942 
373 2 265.322 1.45344 2.91723 944.086 
374 2 264.946 -1.91369 -0.312591 949.345 
375 2 262.606 1.1431 -0.87308 943.015 
376 2 262.232 -0.932279 2.25414 930.662 
377 1 267.78 -2.11496 -0.337486 930.01 
378 1 268.073 1.62074 2.7572 935.85 
379 1 270.954 -1.9281 2.5464 935.219 
380 1 270.661 1.20177 -0.0645522 928.116 
381 2 270.648 1.11298 2.44426 927.991 
382 2 270.714 -1.71297 -0.577505 924.065 
383 2 267.776 0.903245 -0.261544 948.332 
384 2 268.137 -1.99887 2.91035 946.818 
385 1 273.357 -1.17028 -0.621961 912.105 
386 1 274.2 1.6558 2.40214 918.399 
387 1 277.169 -1.30131 2.57346 938.551 
388 1 276.886 1.47172 -0.789162 896.173 
389 2 276.923 1.34176 1.95937 915.462 
390 2 277.085 -1.47942 -0.497522 929.72 
391 2 273.614 1.6357 -0.544222 911.435 
392 2 273.765 -1.10579 2.54086 904.348 
393 1 280.145 40.1235 -0.672249 922.248 
394 1 279.78 1.67887 2.41024 909.447 
395 1 282.418 -1.45753 3.06228 896.176 
396 1 282.333 1.19455 -0.131664 927.34 
397 2 282.428 1.1952 3.04574 929.285 
398 2 282.275 -1.62315 0.348575 922.426 
399 2 279.564 1.88245 -0.902794 931.646 
400 2 279.699 -2.05242 2.46266 922.44 
401 1 -4.57329 4.1772 -0.673626 897.218 
402 1 -4.17528 7.72626 2.4406 888.665 
403 1 -1.56179 4.85227 2.54563 899.153 
404 1 -1.1897 7.64459 -0.785691 899.237 
405 2 -1.3689 7.36136 2.45594 900.834 
406 2 -1.87694 4.60622 -0.715333 913.966 
407 2 -4.03498 7.93942 -0.486784 890.89 
408 2 -3.96215 4.60909 3.12457 889.695 
409 1 1.00318 4.23063 -0.256368 897.617 
410 1 1.33716 7.45308 2.35308 909.377 
411 1 4.41702 4.24919 2.70044 920.857 
412 1 4.99628 6.77307 0.119597 923.771 
413 2 4.62407 7.34939 2.44079 905.5 
414 2 4.0982 4.31363 -0.347927 906.762 
415 2 1.73303 7.09903 -0.580054 897.307 
416 2 1.48998 4.26172 2.47138 918.699 
417 1 6.88888 4.15694 -0.766182 931.179 
418 1 7.78344 7.1283 2.59644 913.044 
419 1 10.3696 4.29199 2.17716 912.56 
420 1 10.6068 7.27354 -0.218241 919.167 
421 2 10.3893 7.30672 2.45617 904.085 
422 2 10.5469 4.04306 -0.747941 908.315 
423 2 7.40994 6.97073 -0.609836 917.739 
424 2 7.15995 4.42262 2.41273 905.913 
425 1 13.4958 3.85531 -0.228803 923.489 
426 1 13.1894 7.33795 2.9079 900.27 
427 1 16.0728 4.55797 3.17888 941.568 
428 1 15.9927 7.06794 -0.531247 921.251 
429 2 16.2654 7.23593 2.90848 924.017 
430 2 16.0583 3.81117 -0.727629 926.93 
431 2 13.1691 7.29779 -0.184302 924.198 
432 2 13.5333 4.69636 2.53947 910.466 
433 1 18.3698 3.66199 0.127381 930.152 
434 1 18.8298 7.28135 2.90153 943.025 
435 1 21.1861 4.36012 2.72599 941.675 
436 1 21.2821 7.43728 -0.197954 913.504 
437 2 21.3565 7.30744 2.75049 946.962 
438 2 21.5558 4.30971 0.159691 916.839 
439 2 18.6967 7.1476 -0.590584 916.644 
440 2 18.6137 4.54921 2.78031 961.761 
441 1 24.1079 4.34258 -0.705815 927.399 
442 1 24.1984 6.78828 2.53458 933.696 
443 1 27.4945 4.47232 2.23051 952.296 
444 1 27.0971 6.99003 -0.363911 955.133 
445 2 27.6116 7.34106 2.31569 941.874 
446 2 26.5551 4.56771 -1.02625 945.857 
447 2 24.2997 7.45532 -0.0799756 927.201 
448 2 24.6063 4.45193 2.61516 945.215 
449 1 30.47 4.5078 -0.939344 964.428 
450 1 30.2653 7.32841 2.02847 944.47 
451 1 33.1786 4.54069 2.89909 953.722 
452 1 33.9151 7.4862 -0.917149 954.307 
453 2 33.4777 7.00499 2.181 953.353 
454 2 33.7125 4.61336 -1.08729 939.023 
455 2 30.605 7.79571 -0.70967 949.978 
456 2 29.9626 4.09563 1.72613 953.677 
457 1 36.2584 4.79138 -0.234132 963.692 
458 1 36.3737 8.06953 2.6458 965.35 
459 1 38.8946 4.37569 2.34197 965.687 
460 1 38.8308 8.06877 -1.39667 950.265 
461 2 38.9933 7.29488 2.36904 942.553 
462 2 38.6856 3.81949 -0.086398 958.822 
463 2 36.3903 7.48239 -1.38634 964.821 
464 2 36.1892 4.05703 2.99778 947.656 
465 1 41.3903 4.07946 -0.535187 1010.98 
466 1 41.5105 7.44449 2.21144 965.269 
467 1 44.9482 5.02013 2.34757 960.501 
468 1 44.9179 7.90004 -0.843523 971.746 
469 2 44.9017 7.64151 2.00566 944.381 
470 2 45.0524 4.57046 -0.4931 977.684 
471 2 41.8012 7.96578 -1.14984 967.934 
472 2 41.6641 4.40177 2.01399 972.318 
473 1 47.777 4.85859 -0.452352 977.725 
474 1 47.6736 7.46897 2.18238 964.084 
475 1 50.7195 4.16022 2.00965 986.801 
476 1 50.7793 7.89832 -0.52865 983.417 
477 2 50.6667 8.0397 2.52798 977.397 
478 2 50.3935 4.52988 -0.580971 990.885 
479 2 47.7255 7.50219 -0.643038 982.369 
480 2 47.9109 4.82709 2.5194 959.516 
481 1 53.465 5.03378 -0.923122 981.392 
482 1 53.4739 7.6925 2.41353 976.81 
483 1 56.5177 4.5104 2.35141 1003.03 
484 1 56.5578 7.81472 -0.353781 996.201 
485 2 56.9552 7.9238 2.27907 993.03 
486 2 56.0833 5.06471 -0.724115 1000.78 
487 2 53.3954 7.38197 -0.851083 986.588 
488 2 53.8152 4.89501 2.47043 974.345 
489 1 58.9766 4.98633 -0.345541 998.22 
490 1 59.8987 7.62666 1.99172 981.463 
491 1 62.0478 4.53177 2.95513 1007 
492 1 61.7651 8.06413 -0.655138 1012.45 
493 2 62.7055 8.23972 3.00995 996.156 
494 2 62.4222 5.16624 -0.453333 989.847 
495 2 59.1084 8.08063 -0.633917 1007.17 
496 2 59.5841 4.50395 2.38319 1009.41 
497 1 64.9508 4.73781 -0.906765 1001.85 
498 1 65.0265 7.04267 2.2058 1006.69 
499 1 68.4465 5.5011 2.299 980.763 
500 1 67.5989 7.73487 -0.87426 1007.57 
501 2 67.6314 7.74344 2.64241 976.276 
502 2 67.6658 4.75882 -0.317178 978.786 
503 2 65.1442 8.0886 -0.364419 989.845 
504 2 64.5538 4.37262 2.57355 992.137 
505 1 71.0305 4.92194 -0.899884 1011.37 
506 1 71.2636 7.98558 2.50965 1000.83 
507 1 73.4375 4.75961 2.93719 1000.86 
508 1 73.4777 7.64706 -0.506601 1010.53 
509 2 73.4378 7.11801 2.10804 1002.18 
510 2 73.7303 5.15459 -1.41001 971.419 
511 2 70.5341 7.65593 -0.65794 1007.19 
512 2 70.9089 5.2217 2.87285 1000.54 
513 1 76.895 5.31356 -0.714076 993.335 
514 1 76.8789 7.79211 1.8626 1003.83 
515 1 79.3539 4.62962 2.28687 1016.32 
516 1 79.6711 7.91882 -1.04299 998.544 
517 2 79.6502 7.58456 2.19559 993.647 
518 2 79.5161 5.13866 -0.897417 983.556 
519 2 76.354 7.9318 -0.646946 1008.68 
520 2 76.8995 5.2817 2.07764 1004.6 
521 1 82.4877 4.94599 -0.907309 986.001 
522 1 82.6822 7.58778 2.23906 1007.28 
523 1 85.7559 4.82617 2.00447 1029.14 
524 1 85.7633 7.88214 -0.438874 1014.14 
525 2 85.4998 7.47036 2.40263 1000.71 
526 2 85.6685 4.83296 -0.787925 1028.72 
527 2 82.2725 7.73474 -0.554295 1020.62 
528 2 82.2198 5.09161 2.18019 1012.68 
529 1 88.7866 4.89724 -0.455547 1030.19 
530 1 88.5968 7.51406 2.28089 1040.49 
531 1 91.2549 4.8341 2.86857 1018.46 
532 1 90.7578 7.87704 -0.878313 1017.68 
533 2 91.3057 7.59485 2.9301 1057.2 
534 2 91.0877 5.01779 -0.833947 1032.8 
535 2 88.2197 7.45837 -0.665544 1031.23 
536 2 88.3225 4.81417 2.03235 1024.19 
537 1 93.8298 5.16422 -0.708864 1051.74 
538 1 93.8909 8.18014 2.46391 1014.93 
539 1 97.0566 5.33251 2.35748 1034.05 
540 1 96.7636 8.33393 -0.303402 1028.03 
541 2 96.772 8.57379 2.19375 1052.26 
542 2 96.8054 4.84185 -0.4956 1041.41 
543 2 94.0385 8.51242 -0.334952 1049.8 
544 2 94.066 4.44539 2.274 1052.51 
545 1 100.324 5.34909 -1.12502 1041.22 
546 1 100.356 8.22327 2.44171 1034.91 
547 1 102.956 5.08224 2.09417 1045.7 
548 1 102.941 8.25626 -0.666897 1061.21 
549 2 102.781 8.38575 2.63116 1037.9 
550 2 102.677 5.38796 -0.479841 1049.27 
551 2 100.195 8.15637 -0.671811 1030.51 
552 2 99.4216 5.38259 2.71086 1043.19 
553 1 105.824 4.53386 -0.506284 1046.03 
554 1 105.572 8.52199 2.41784 1051.84 
555 1 108.324 5.81903 2.6418 1039.06 
556 1 108.783 8.23213 -0.38836 1067.25 
557 2 108.579 8.63373 2.40073 1041.92 
558 2 108.321 5.41548 -0.461858 1055.4 
559 2 105.858 8.15142 -0.267465 1069.04 
560 2 105.621 5.47343 2.34402 1051.86 
561 1 111.569 5.06958 -0.273976 1061.33 
562 1 111.649 8.90745 2.30401 1076.55 
563 1 114.204 5.77779 3.14195 1044.04 
564 1 114.855 8.30793 -0.614408 1071.66 
565 2 114.575 8.05592 2.75555 1070.49 
566 2 114.644 5.03116 -0.283314 1065.59 
567 2 111.307 8.3025 -0.480206 1057.13 
568 2 110.997 5.34309 2.46321 1059.76 
569 1 117.05 5.1673 0.0332254 1066.28 
570 1 117.501 7.6302 2.20042 1062.45 
571 1 120.574 5.25779 2.34588 1083.36 
572 1 120.554 8.64069 -0.285305 1066.7 
573 2 120.324 8.39716 2.2495 1076.75 
574 2 120.32 5.10038 -0.15875 1051.54 
575 2 117.386 8.0107 -0.427007 1054.61 
576 2 116.786 4.85468 2.30386 1050.01 
577 1 123.035 5.13298 -0.402734 1076.26 
578 1 123.622 8.307 2.96731 1069.91 
579 1 126.524 4.19907 2.94683 1064.6 
580 1 126.053 8.63621 -0.0106549 1064.68 
581 2 126.01 9.15716 2.84287 1064.65 
582 2 126.425 4.91072 0.0471571 1109.37 
583 2 122.85 8.68516 -0.414468 1064.72 
584 2 122.956 4.74197 3.10812 1067.15 
585 1 128.775 5.2948 0.0816894 1091.05 
586 1 129.482 8.64003 3.21455 1061.37 
587 1 131.935 5.07008 2.55064 1076 
588 1 131.56 8.30901 -0.293491 1091.49 
589 2 131.897 8.04726 2.92869 1075.97 
590 2 131.891 5.18235 -0.613136 1103.75 
591 2 128.775 8.56796 -0.283202 1085.88 
592 2 129.155 4.86344 3.02591 1060.72 
593 1 134.464 4.90561 -0.242883 1065.52 
594 1 134.951 8.077 2.32102 1078.21 
595 1 137.833 5.27192 2.73425 1081.05 
596 1 137.86 8.0963 -0.619126 1085.14 
597 2 137.487 8.40645 2.51396 1074.41 
598 2 138.266 4.90659 -0.422459 1093.8 
599 2 135.029 7.68728 -0.254168 1085.57 
600 2 134.841 5.40426 2.79196 1082.64 
601 1 141.018 5.05363 0.0830336 1083.77 
602 1 140.663 7.96678 1.9841 1102.25 
603 1 143.734 5.03719 3.37486 1111.83 
604 1 143.505 8.02223 -1.11735 1092.08 
605 2 143.213 7.02186 2.01239 1078.79 
606 2 143.309 4.61841 -0.903732 1110.91 
607 2 140.216 8.3224 -0.938425 1088.56 
608 2 140.95 4.92999 3.04082 1089.22 
609 1 147.164 2.50016 13.8277 1071.14 
610 1 146.264 4.98549 -0.208144 1078.83 
611 1 149.863 5.12786 2.20278 1086.37 
612 1 148.84 7.70313 -1.10568 1070.05 
613 2 148.996 7.79645 1.98183 1104.03 
614 2 149.802 5.17165 -1.01181 1072.77 
615 2 146.283 8.12438 -0.926127 1089.51 
616 2 146.115 4.91626 2.31785 1095.85 
617 1 152.804 4.79993 -0.745621 1076.7 
618 1 152.013 8.4659 1.62194 1100.24 
619 1 155.273 5.51787 2.2383 1087.92 
620 1 154.862 8.04357 -0.943893 1068.39 
621 2 155.417 8.11185 2.66794 1081.78 
622 2 155.345 4.99243 -0.725149 1070.37 
623 2 152.083 8.28423 -0.850334 1078.15 
624 2 152.751 5.32485 2.46479 1077.35 
625 1 158.656 4.87781 -0.711567 1074.35 
626 1 158.531 8.00292 2.45495 1091.28 
627 1 160.958 4.99854 2.87517 1071.34 
628 1 160.798 7.88993 -0.890664 1046.9 
629 2 160.972 7.75485 2.78191 1057.73 
630 2 161.152 5.25344 -1.22677 1052.12 
631 2 158.052 8.48686 -0.428384 1091.81 
632 2 158.612 4.93549 2.58149 1081.02 
633 1 163.765 4.4838 -0.221065 1049.47 
634 1 163.923 8.26636 2.0113 1089.21 
635 1 166.788 5.16622 2.441 1048.79 
636 1 166.804 8.4563 -0.774187 1041.78 
637 2 166.723 7.9489 2.63623 1051.48 
638 2 166.358 4.31372 -0.943721 1039.42 
639 2 163.564 8.37033 -0.672095 1055.88 
640 2 163.928 4.85057 2.49483 1077.37 
641 1 169.412 5.36402 -0.180873 1045.35 
642 1 169.528 7.7239 2.52971 1042.72 
643 1 172.275 4.86536 2.64907 1039.81 
644 1 172.4 7.70723 -0.0465229 1058.05 
645 2 172.561 7.40346 3.10938 1043.33 
646 2 171.967 4.87151 -0.714973 1042.9 
647 2 169.409 8.02432 -0.283433 1059.64 
648 2 169.592 4.8203 2.60818 1047.28 
649 1 175.591 4.81722 -0.430907 1049.21 
650 1 175.451 7.92331 2.41988 1018.4 
651 1 178.514 4.79379 2.48505 1044.19 
652 1 178.365 7.70923 -0.720143 1025.43 
653 2 177.997 7.49965 2.30017 1024.6 
654 2 177.983 4.72159 -0.256195 1037.34 
655 2 175.386 8.08804 -0.515783 1030.14 
656 2 175.149 4.61058 2.57143 1023.25 
657 1 181.397 4.78388 -0.488585 1001 
658 1 180.912 7.46659 2.59393 1030.99 
659 1 184.608 4.62968 2.86804 1032.38 
660 1 184.035 7.68379 0.260358 1020.58 
661 2 183.902 7.6997 2.79625 1041.58 
662 2 184.181 4.75109 -0.904725 1024.6 
663 2 180.987 7.46644 -0.2793 1015.54 
664 2 181.186 4.94444 2.43667 1029.61 
665 1 186.7 4.72492 -0.896119 1025.81 
666 1 186.846 7.87797 2.91701 1020.22 
667 1 189.846 4.86707 2.0224 1007.13 
668 1 189.519 7.21715 -0.808014 1020.51 
669 2 190.117 7.33843 2.81543 1026.87 
670 2 189.444 4.48597 -0.805405 1011.4 
671 2 186.78 7.31285 0.136383 1047.58 
672 2 187.214 4.00836 2.55391 1017.36 
673 1 192.522 4.23737 -0.754325 1000.58 
674 1 192.592 7.15572 2.87433 1029.55 
675 1 195.643 4.46462 2.64501 1027.19 
676 1 195.426 7.3866 -0.59424 1027.87 
677 2 195.781 7.56132 2.75725 1029.87 
678 2 196.041 4.24773 -0.365719 998.084 
679 2 192.084 7.25118 -0.316963 1045 
680 2 192.586 4.52879 2.40191 1032.92 
681 1 198.818 4.13546 -0.177189 1015.25 
682 1 198.464 7.42191 2.97393 1025.47 
683 1 200.551 3.97545 2.94423 1004.66 
684 1 201.432 7.86273 -0.754771 1008.57 
685 2 201.712 7.63501 2.94374 1021.84 
686 2 201.51 3.97601 0.0122911 992.568 
687 2 198.608 7.44421 -0.16365 1008.32 
688 2 198.181 3.94286 2.29203 1028.58 
689 1 204.236 4.46756 -0.259155 999.379 
690 1 204.345 6.88709 2.8073 988.755 
691 1 207.62 4.65988 2.44446 987.847 
692 1 207.491 7.31246 -0.296055 1000.05 
693 2 207.329 7.32256 2.49248 1002.73 
694 2 207.145 4.36552 -0.633009 995.939 
695 2 204.158 7.38927 0.0657337 1010.33 
696 2 204.034 4.33002 2.57847 1003.42 
697 1 210.425 3.9951 -0.688883 1011.2 
698 1 210.38 7.21363 2.42594 989.078 
699 1 212.999 4.40951 2.39693 988.669 
700 1 213.05 7.74352 -0.426755 992.034 
701 2 213.122 7.0504 2.40563 995.715 
702 2 213.387 3.79522 -0.917702 1000.44 
703 2 210.342 6.94006 -0.0716399 1005.44 
704 2 210.456 3.55502 2.08632 998.374 
705 1 216.084 4.028 -0.537321 971.843 
706 1 216.033 7.1069 2.66884 1011.08 
707 1 218.63 4.28379 2.16064 997.673 
708 1 218.785 7.42587 -0.495238 996.857 
709 2 218.962 7.22498 2.36884 994.063 
710 2 218.861 3.81027 -0.419623 997.76 
711 2 215.743 7.13388 -0.458214 982.905 
712 2 216.005 4.40588 2.14176 996.258 
713 1 221.885 4.23725 -0.461777 984.919 
714 1 221.854 7.02425 2.59643 978.985 
715 1 224.722 3.76421 2.37592 998.329 
716 1 224.832 7.27422 -0.481595 973.005 
717 2 224.841 6.83937 2.50442 969.385 
718 2 224.483 4.37344 -0.447121 973.894 
719 2 222.145 7.42158 -0.264769 957.003 
720 2 221.567 3.71398 1.98425 990.102 
721 1 227.635 4.62031 -0.530865 996.845 
722 1 227.17 7.31938 2.93048 991.349 
723 1 230.875 4.08436 2.1033 949.528 
724 1 230.649 7.63637 -0.297329 998.279 
725 2 230.772 7.75597 2.46032 994.399 
726 2 231.052 4.09432 -0.99677 955.822 
727 2 227.595 7.63255 -0.0155804 963.326 
728 2 227.896 4.32897 2.79529 975.128 
729 1 233.38 4.60808 -0.267253 988.222 
730 1 233.389 7.3654 2.8176 1002.71 