ITEM: TIMESTEP
8000000
ITEM: NUMBER OF ATOMS
8400
ITEM: BOX BOUNDS pp pp pp
-5.9099547646241319e+00 2.8359995476463484e+02
-2.1446273254920634e+00 4.0174627325491812e+01
-1.7757301867509554e+00 1.6325730186751606e+01
ITEM: ATOMS id type x y z f_TolTpA 
1 1 -4.5243 -1.61629 -0.372298 913.783 
2 1 -3.97058 1.1441 2.45639 907.152 
3 1 -1.37652 -1.70791 2.43929 892.574 
4 1 -1.24993 1.17869 -1.02405 901.436 
5 2 -1.20608 0.857557 2.21006 911.877 
6 2 -1.86678 -1.35888 -0.698389 931.156 
7 2 -3.91741 1.7545 -0.748149 915.535 
8 2 -4.12978 -1.62305 2.36837 917.898 
9 1 1.22846 -1.40145 -0.534569 917.022 
10 1 1.67226 0.989539 2.48838 898.186 
11 1 4.28964 40.1404 2.41718 934.109 
12 1 4.37221 0.770935 -0.6266 910.931 
13 2 4.15704 1.38839 2.23414 912.09 
14 2 4.19235 -1.80276 -0.734924 926.538 
15 2 1.32485 1.30235 -0.862729 926.459 
16 2 1.39296 -1.57089 2.37829 899.705 
17 1 7.13506 -1.5317 -0.485979 916.195 
18 1 7.0661 1.62448 2.22584 922.966 
19 1 10.0499 -1.61474 2.48037 919.919 
20 1 9.74692 1.61 -0.763796 932.431 
21 2 10.2663 1.52383 2.20282 935.152 
22 2 9.92348 -2.12595 -0.517518 964.496 
23 2 6.93979 1.30807 -0.285876 934.83 
24 2 7.32994 -1.71742 2.67855 911.338 
25 1 13.0618 -1.89276 -0.540205 931.139 
26 1 13.0277 0.953029 2.73763 927.775 
27 1 15.67 -1.30246 2.42812 920.88 
28 1 15.5833 1.26402 -0.387536 898.536 
29 2 15.6019 1.49363 3.14484 943.317 
30 2 15.5982 -1.28628 0.0429487 922.617 
31 2 13.3436 1.23157 -0.514462 938.484 
32 2 12.8809 -1.70759 2.56201 936.364 
33 1 18.7347 -1.83354 -0.627616 930.572 
34 1 18.4209 1.17257 3.24708 947.683 
35 1 21.5409 -1.40569 2.92451 938.903 
36 1 21.9387 1.33078 -0.212006 928.066 
37 2 21.0337 1.39636 2.91451 935.882 
38 2 21.5006 -1.84873 0.012835 937.824 
39 2 18.4101 0.931263 -0.349275 938.731 
40 2 18.4958 -1.68032 3.11942 913.327 
41 1 24.4957 -1.62071 0.190962 930.827 
42 1 24.6758 1.74119 2.76722 940.684 
43 1 27.6421 -1.42181 3.08222 967.214 
44 1 27.5911 1.44419 -0.324984 943.517 
45 2 27.9421 1.41098 2.86876 945.622 
46 2 27.429 -1.54392 -0.409541 963.833 
47 2 24.6733 1.74265 0.149587 930.468 
48 2 24.282 -1.05306 2.76673 932.76 
49 1 30.2625 -1.48174 -0.457674 937.749 
50 1 30.7483 1.55866 2.55187 945.053 
51 1 33.3011 -1.70903 3.07586 947.499 
52 1 33.161 1.0303 0.0929204 959.553 
53 2 33.4119 2.07435 2.61156 939.645 
54 2 33.2711 -1.50759 0.0417396 941.537 
55 2 30.703 1.45229 -0.418718 920.568 
56 2 30.4197 -1.41399 2.94942 963.87 
57 1 35.9697 -1.69015 -0.550556 958.783 
58 1 35.8624 0.993349 2.80972 986.801 
59 1 38.7567 -1.68519 1.91844 957.165 
60 1 38.9831 1.41761 -0.626423 961.061 
61 2 38.6114 1.77017 2.44937 955.429 
62 2 38.8903 -1.42819 -0.957681 977.977 
63 2 36.0721 0.96415 -0.159337 965.147 
64 2 36.1982 -1.60993 2.79082 951.254 
65 1 41.6317 -1.36355 -0.666616 984.762 
66 1 41.3175 1.10872 2.38839 969.612 
67 1 44.1708 -1.27628 3.03052 971.986 
68 1 44.6912 1.37201 -0.681991 957.415 
69 2 45.1131 1.5215 2.38259 963.639 
70 2 44.6295 -1.33771 -0.725605 967.876 
71 2 41.834 1.34768 -0.334661 973.38 
72 2 41.6516 -1.41092 2.47021 960.096 
73 1 47.1763 -1.48405 -0.188827 986.645 
74 1 47.6014 1.05905 2.97693 967.849 
75 1 50.1101 40.1569 1.77322 980.208 
76 1 50.7323 1.54011 -0.150298 992.721 
77 2 50.3234 1.50319 2.2962 988.446 
78 2 50.4192 -1.27599 -0.638616 967.64 
79 2 47.5738 1.56364 -0.655263 973.846 
80 2 47.2896 -1.69655 2.79925 975.844 
81 1 53.1479 -1.10881 0.0558742 990.864 
82 1 53.5813 1.68977 2.5772 985.063 
83 1 56.2874 -1.49146 2.21796 974.019 
84 1 56.3538 1.53404 -0.904644 989.675 
85 2 56.1175 1.8606 2.66329 967.958 
86 2 55.4825 -1.56893 -0.710474 980.937 
87 2 53.3853 1.68746 -0.396614 978.521 
88 2 53.3341 -1.0028 2.5954 984.197 
89 1 59.0699 -1.42638 -1.01493 973.128 
90 1 58.7355 1.43636 2.50991 983.16 
91 1 61.6286 -2.02117 2.29712 996.2 
92 1 61.8004 1.46943 -0.716862 1002.35 
93 2 62.217 0.610395 2.01931 1001.75 
94 2 61.9581 -1.29949 -1.18857 972.509 
95 2 58.7997 1.24167 -0.575586 975.511 
96 2 58.6918 -1.34133 2.15073 972.826 
97 1 64.491 -1.12808 -1.20661 973.067 
98 1 64.8251 1.42352 2.15689 983.273 
99 1 67.4944 -1.77436 2.00252 987.985 
100 1 67.7877 1.56038 -0.844478 989.52 
101 2 67.5788 1.27329 2.1527 996.167 
102 2 67.0928 -1.69967 -1.08729 982.313 
103 2 64.5823 2.16223 -0.884477 976.659 
104 2 64.8888 -1.37946 2.29344 982.474 
105 1 70.368 -1.89116 -1.51985 998.673 
106 1 70.6503 1.21937 2.37687 1011.32 
107 1 73.3791 -1.84855 2.27619 1002.14 
108 1 72.7822 0.768999 -0.937724 1014.38 
109 2 73.4715 1.13268 2.37527 1002.25 
110 2 73.3785 -1.79887 -0.841426 988.442 
111 2 70.2811 0.839194 -1.02652 981.658 
112 2 70.3781 -1.5057 2.30425 992.145 
113 1 76.7741 -1.28715 -0.581725 1018.4 
114 1 77.0141 1.06839 2.73645 975.9 
115 1 79.5803 -2.13656 2.00672 1011.32 
116 1 80.2355 0.920382 -0.746888 1005.99 
117 2 80.1973 1.36447 1.95032 997.106 
118 2 79.9807 -1.44704 -0.872571 985.35 
119 2 76.3551 1.30139 -0.65593 998.113 
120 2 76.4171 -1.51269 2.26587 1002.54 
121 1 82.6851 -1.98744 -1.01366 1001.6 
122 1 82.7478 1.6808 2.00481 994.112 
123 1 85.0434 -1.28697 2.07072 1014.99 
124 1 85.2475 1.83376 -0.592378 1011.59 
125 2 85.2649 1.28554 2.12253 1011.67 
126 2 85.3305 -1.93258 -0.901953 1015.57 
127 2 82.7096 1.30313 -0.972555 1015.68 
128 2 82.7703 -1.87809 2.70162 1005.47 
129 1 88.1258 -1.65119 -0.254649 1021.77 
130 1 88.3988 0.95453 2.09762 1018.81 
131 1 91.4885 -1.85409 2.14107 1014.51 
132 1 91.0841 1.2633 -0.440326 1000.5 
133 2 91.1465 1.84743 2.12034 1002.88 
134 2 91.5283 -1.53692 -0.368651 1019.86 
135 2 88.2108 1.19376 -0.323692 1028.93 
136 2 88.9412 -1.63924 2.65497 1005.27 
137 1 94.3229 -1.38971 -1.18777 1020.14 
138 1 93.9351 1.45262 2.30569 1013.64 
139 1 96.4807 -1.44906 2.49081 1036.03 
140 1 96.8876 1.26474 -0.914771 1019.15 
141 2 96.6244 1.41447 2.22641 1055.02 
142 2 96.8375 -1.71843 -1.41587 1040.88 
143 2 93.6327 1.78894 -0.997428 1035.04 
144 2 94.1368 -1.21731 2.07285 1028.06 
145 1 99.7023 -2.13797 -1.14735 1031.52 
146 1 99.3497 1.65283 1.99611 1033.55 
147 1 102.344 -1.21009 2.0942 1008.01 
148 1 102.991 1.59461 -0.252536 1012.24 
149 2 103.12 1.05343 2.10597 1029.25 
150 2 102.248 -1.9481 -0.507169 1025.98 
151 2 99.8148 1.3632 -0.646308 1048.43 
152 2 99.5645 -1.57634 2.69799 1043.61 
153 1 105.353 -1.75316 -0.512357 1046.24 
154 1 105.762 1.49142 2.64724 1028.45 
155 1 108.385 -1.06399 2.37241 1035.42 
156 1 108.389 0.913496 -0.298279 1027.62 
157 2 108.274 1.36884 2.66553 1028.81 
158 2 108.126 -1.9013 -0.633466 1052.64 
159 2 106.019 1.84919 -0.324654 1039.36 
160 2 105.644 -1.40409 2.28368 1027.46 
161 1 111.399 -2.03095 -0.677663 1061.2 
162 1 111.602 1.64041 2.16885 1065.08 
163 1 114.384 -1.36963 2.64005 1047.64 
164 1 114.111 1.42221 -0.897557 1064.92 
165 2 114.366 1.68867 2.35445 1067.1 
166 2 114.537 -1.48703 -0.53297 1054.75 
167 2 110.955 1.27782 -1.07818 1034.08 
168 2 111.707 -0.906787 1.60766 1042.71 
169 1 117.076 -1.8649 0.227039 1062.82 
170 1 117.087 1.72924 2.59128 1061.31 
171 1 120.292 -1.62099 2.83762 1075.4 
172 1 119.738 1.51117 -0.181672 1056.92 
173 2 120.298 1.42268 2.7344 1055.87 
174 2 119.962 -2.09732 -0.330281 1079.36 
175 2 117.237 1.80621 0.0144674 1067.71 
176 2 117.094 -1.41506 3.10313 1061.55 
177 1 122.839 -2.11535 -0.157517 1059.75 
178 1 123.023 1.52356 2.60786 1057.02 
179 1 125.762 -1.49714 1.76428 1053.71 
180 1 125.196 1.48177 -0.136056 1056.6 
181 2 125.642 1.22759 2.2846 1057.66 
182 2 126.055 -1.24203 -0.652501 1068.96 
183 2 122.54 1.49677 -0.00501275 1051.02 
184 2 123.414 40.0951 2.79371 1073.25 
185 1 128.934 -1.34511 -0.494215 1101.72 
186 1 128.142 1.85685 2.54221 1069.11 
187 1 131.569 -1.03557 2.70387 1098.47 
188 1 131.403 1.59648 -0.393199 1082.97 
189 2 131.687 1.98555 2.35214 1065.97 
190 2 131.83 -0.924305 -0.145874 1086.86 
191 2 128.703 1.49141 -0.741143 1075.69 
192 2 128.743 -1.23465 2.30511 1093.5 
193 1 134.958 -0.554016 -0.517779 1095.42 
194 1 134.676 1.69657 2.30574 1065.93 
195 1 137.573 -1.40495 2.2366 1067.83 
196 1 138.086 1.82804 -0.976457 1092.73 
197 2 137.56 1.96377 2.34382 1099.46 
198 2 137.49 -1.05861 -0.405451 1109.09 
199 2 134.543 2.19906 -0.583744 1073.64 
200 2 134.591 -1.27935 2.39949 1103.98 
201 1 140.503 -1.38753 -0.40852 1083.52 
202 1 140.24 1.8097 2.2804 1113.3 
203 1 143.24 -1.40851 2.51432 1118.91 
204 1 142.996 1.69608 -0.536175 1115.02 
205 2 143.461 1.71834 2.33188 1101.05 
206 2 143.133 -1.74393 -0.143892 1106.3 
207 2 140.525 1.27003 -0.121499 1094.45 
208 2 140.32 -1.34611 2.61197 1088.77 
209 1 146.11 -1.38823 -0.854918 1099.46 
210 1 146.033 1.02787 2.59696 1102.3 
211 1 148.812 -1.19323 3.15051 1088.24 
212 1 149.28 1.53383 -0.668704 1088.41 
213 2 148.919 2.26346 2.41048 1052.58 
214 2 149.162 -1.12434 -0.551622 1073.71 
215 2 146.315 1.12936 -0.393794 1080.42 
216 2 146.141 -1.53421 3.75982 1108.66 
217 1 152.013 -1.08448 -0.364892 1096.35 
218 1 151.672 1.90894 2.54057 1069.96 
219 1 155.314 -0.947506 2.65982 1072.31 
220 1 154.963 1.61324 -0.081869 1059.96 
221 2 155.233 1.36714 2.68565 1059.36 
222 2 154.727 -1.04182 -0.41396 1075.41 
223 2 152.185 1.91978 -0.321035 1057.53 
224 2 151.673 -1.01319 2.80794 1082.94 
225 1 157.858 -1.00952 -0.0751966 1068.7 
226 1 158.333 1.82059 3.17923 1094.11 
227 1 160.847 -1.70829 2.50856 1073.4 
228 1 161.102 1.94432 -0.0233636 1085.3 
229 2 161.377 1.68441 2.32546 1071.31 
230 2 160.871 -1.91132 -0.179287 1072.66 
231 2 158.377 1.55663 -0.344292 1068.79 
232 2 158.388 -0.591586 2.65469 1044.92 
233 1 163.935 -1.53251 0.00874856 1080.15 
234 1 164.041 1.47407 2.49137 1083.22 
235 1 167.273 -1.09009 2.33407 1070.62 
236 1 166.942 0.522148 -1.00276 1065.57 
237 2 167.141 1.57837 2.26104 1058.51 
238 2 166.924 -1.70385 -0.00955458 1065.65 
239 2 164.287 1.6563 -0.04172 1060.27 
240 2 163.827 -1.39865 2.85896 1075.83 
241 1 170.405 -1.21208 -0.45201 1059.2 
242 1 169.89 1.45314 2.25817 1038.52 
243 1 172.612 -1.12638 2.58086 1051.41 
244 1 172.505 1.26302 -0.685084 1036.44 
245 2 172.561 1.71704 2.38742 1057.95 
246 2 172.84 -1.3485 -0.115435 1051.2 
247 2 169.464 1.41113 -0.307738 1069.91 
248 2 170.127 -1.12109 2.36641 1037.5 
249 1 175.869 -1.1789 -0.820438 1062.56 
250 1 175.587 1.51313 2.36259 1041.61 
251 1 178.231 -1.06678 2.19053 1050.04 
252 1 178.837 1.99849 -0.740195 1029.43 
253 2 178.491 1.92169 2.04177 1027.06 
254 2 178.518 -1.13344 -0.89532 1074.59 
255 2 175.55 1.41828 -0.804188 1067.36 
256 2 175.445 -1.02207 2.44747 1077.72 
257 1 181.67 40.0117 -0.750177 1038.91 
258 1 181.507 1.2489 1.88939 1022.54 
259 1 183.85 -1.3427 2.27379 1037.28 
260 1 184.655 1.81606 -0.992934 1016.14 
261 2 184.833 2.16805 2.01267 1017.15 
262 2 184.633 -1.92287 -0.715867 1016.88 
263 2 181.473 2.12613 -0.561675 1028.7 
264 2 181.157 -1.51865 2.34843 1058.24 
265 1 187.218 -1.00771 -0.460644 1060.01 
266 1 187.17 1.67635 1.88406 1026.5 
267 1 190.549 -0.945725 2.58367 1025.34 
268 1 190.508 1.43792 -0.432685 1017.14 
269 2 190.261 1.77324 2.71705 1052.87 
270 2 190.301 -1.59832 -0.385064 1048.7 
271 2 187.603 1.61827 -0.623583 1038.32 
272 2 187.013 -0.90191 2.56715 1019.21 
273 1 193.152 -1.43949 -0.345782 1025.86 
274 1 193.313 1.98987 2.50053 997.426 
275 1 195.914 -1.46786 2.56951 1016.88 
276 1 196.204 1.30365 -0.568191 1012.68 
277 2 195.882 1.64452 2.85895 1021.9 
278 2 196.202 -1.55709 0.132979 984.623 
279 2 193.286 1.23377 -0.527299 1006.3 
280 2 192.999 -2.07439 2.438 1023.79 
281 1 198.826 -1.58077 -0.345365 1012.82 
282 1 198.939 1.4667 2.7793 1018.62 
283 1 201.823 -1.0171 2.64296 1027.73 
284 1 201.347 1.6763 -0.930352 995.407 
285 2 201.722 1.57402 2.57229 1022.76 
286 2 201.288 -1.3928 -0.350117 1019.13 
287 2 198.563 1.65576 -0.504281 1017.96 
288 2 198.586 -1.62454 2.47305 1008.26 
289 1 204.366 -1.4851 -0.291147 1015.57 
290 1 204.55 1.63395 2.42655 1007.59 
291 1 207.096 -1.11799 2.32591 1011.23 
292 1 207.219 1.33829 -1.07939 1020.01 
293 2 207.125 1.7059 2.48338 998.004 
294 2 207.066 -1.51656 -0.314464 1000.02 
295 2 204.308 1.11713 -0.682433 995.261 
296 2 204.395 -1.42225 2.93074 1009.33 
297 1 210.936 -1.43008 -1.15146 1016.05 
298 1 209.769 1.93771 2.44905 996.927 
299 1 213.329 -0.912011 2.46021 997.413 
300 1 213.314 2.01114 -1.0096 1001.54 
301 2 213.066 1.81577 2.12151 997.301 
302 2 213.258 -1.11488 -0.48781 1034.8 
303 2 210.62 1.19496 -1.27258 999.116 
304 2 210.156 -1.18297 2.70626 987.696 
305 1 216.537 -0.955332 -0.730775 1011.97 
306 1 216.022 1.88477 1.89951 1003.57 
307 1 219.22 -0.646017 2.58597 992.945 
308 1 219.504 1.63646 -1.35788 996.676 
309 2 219.125 1.76031 2.09805 987.641 
310 2 219.562 -0.865577 -1.18371 997.081 
311 2 216.493 1.9661 -0.688033 1001.74 
312 2 216.377 -0.713513 2.79609 1013.36 
313 1 222.055 -1.07875 -0.798285 990.574 
314 1 222.222 2.18971 1.90703 977.649 
315 1 225.143 -0.825271 2.08921 991.772 
316 1 224.915 1.9537 -1.29113 1009.11 
317 2 224.887 2.04975 2.15808 976.248 
318 2 225.049 -0.746306 -0.537088 976.22 
319 2 222.493 2.40238 -0.782443 985.571 
320 2 221.699 -1.33908 1.82273 1000.13 
321 1 227.747 -1.11191 -0.812972 978.752 
322 1 228.161 2.2814 2.95585 1007.44 
323 1 230.412 -1.04691 2.47747 987.928 
324 1 230.38 2.04176 -0.362142 978.646 
325 2 230.682 2.12152 2.4273 976.639 
326 2 230.549 -1.20795 -0.967864 987.792 
327 2 227.887 1.63598 -1.21223 1027.88 
328 2 227.985 -0.827071 2.11902 1009.04 
329 1 232.96 -1.21054 -1.25392 987.449 
330 1 233.343 1.71426 2.55709 962.805 
331 1 235.947 -0.935653 2.28594 984.636 
332 1 236.518 1.68626 -0.583303 956.562 
333 2 236.378 2.35262 2.26089 970.181 
334 2 236.418 -0.807015 -0.376959 987.47 
335 2 233.322 1.98537 -0.313517 994.361 
336 2 233.471 -0.783269 2.38212 970.868 
337 1 239.46 -0.947787 -0.112894 962.45 
338 1 238.892 1.85203 2.10141 976.745 
339 1 242.581 -1.22765 2.97359 952.303 
340 1 242.096 1.48531 -0.329135 963.42 
341 2 242.272 1.59864 3.12993 973.501 
342 2 242.483 -1.43439 -0.0574979 959.326 
343 2 239.206 2.20826 -0.757145 952.95 
344 2 239.349 -0.471113 2.34944 961.376 
345 1 245.173 -1.08237 -0.0323222 943.031 
346 1 244.567 2.10135 3.14861 967.566 
347 1 247.905 -0.885828 2.36843 972.345 
348 1 247.752 2.07377 -0.113951 971.894 
349 2 248.091 1.87648 2.76215 952.962 
350 2 247.742 -0.467224 -0.643325 951.076 
351 2 244.943 2.01548 0.533406 976.06 
352 2 245.07 -1.15976 2.65555 970.46 
353 1 250.427 -0.941249 -0.789 968.798 
354 1 251.018 2.23278 2.63687 959.621 
355 1 253.558 -0.709763 2.44698 954.683 
356 1 253.982 2.00983 -0.711805 934.232 
357 2 253.758 1.97066 2.77512 947.302 
358 2 253.942 -0.658858 -0.371692 953.232 
359 2 250.929 2.01971 -0.58491 939.665 
360 2 250.793 -0.475224 2.64803 949.268 
361 1 256.938 -1.17666 -0.747301 950.298 
362 1 256.587 1.98957 2.14113 956.98 
363 1 259.443 -1.1492 2.19796 942.171 
364 1 260.013 2.15538 -0.390554 948.346 
365 2 259.113 2.63263 2.81491 950.322 
366 2 259.459 -0.665992 -0.564118 951.271 
367 2 256.771 1.93737 -0.548189 945.009 
368 2 256.898 -0.86644 2.49231 959.82 
369 1 262.96 -1.61375 -0.473942 921.845 
370 1 261.75 1.8208 2.54389 944.354 
371 1 265.502 -0.696749 2.72513 930.015 
372 1 265.406 1.93633 0.213878 945.027 
373 2 265.298 1.87228 2.95303 938.849 
374 2 265.411 -1.06202 -0.159947 932.403 
375 2 262.485 1.65527 -0.118608 939.829 
376 2 262.555 -1.2486 2.36555 957.992 
377 1 268.045 -1.01768 -0.156847 923.094 
378 1 268.25 2.09763 2.69918 933.682 
379 1 271.244 -1.59398 2.75054 952.115 
380 1 270.613 2.30356 -0.300347 931.334 
381 2 270.982 2.31445 2.31634 928.998 
382 2 270.728 -1.49507 -0.869391 932.486 
383 2 268.231 2.24445 0.0687012 942.845 
384 2 268.434 -1.07281 3.01089 926.784 
385 1 273.563 -0.800837 -0.301602 967.056 
386 1 274.2 2.31942 2.3127 942.153 
387 1 276.871 -0.418162 2.52624 919.844 
388 1 276.253 1.8031 -0.516207 904.654 
389 2 276.87 2.16483 2.95648 920.57 
390 2 276.359 -0.853094 -0.460956 923.874 
391 2 273.477 2.08365 -0.412729 938.09 
392 2 273.97 -0.47876 2.82167 913.593 
393 1 279.601 -0.875467 -0.829234 917.621 
394 1 279.367 1.95902 2.13579 917.443 
395 1 282.761 -1.42309 2.65111 911.497 
396 1 283.09 1.93054 -0.319535 919.599 
397 2 283.067 1.33421 2.45939 917.229 
398 2 282.36 -0.606857 -0.874319 932.341 
399 2 279.413 1.98727 -0.838474 920.169 
400 2 279.628 -0.629872 2.61489 917.87 
401 1 -3.98602 4.84077 -0.594999 916.77 
402 1 -4.17274 7.76869 2.50162 888.507 
403 1 -1.205 4.23206 2.4197 885.438 
404 1 -1.1847 7.62555 -0.278268 898.254 
405 2 -1.06488 7.11128 2.32671 916.987 
406 2 -1.09367 4.53791 -0.908232 888.185 
407 2 -4.25676 7.89362 -0.0860575 927.545 
408 2 -4.3635 4.38705 2.65828 916.908 
409 1 2.00653 4.18452 -0.939578 913.21 
410 1 1.49196 7.01895 2.43732 910.774 
411 1 4.27739 4.25103 2.37496 920.595 
412 1 4.09505 7.53445 -0.642638 921.27 
413 2 4.4771 7.94375 2.41777 933.657 
414 2 4.32815 4.96484 -0.313489 926.349 
415 2 1.70854 7.88368 -0.509389 911.714 
416 2 1.42896 4.52233 3.02169 913.031 
417 1 7.10822 5.14438 -0.165383 935.979 
418 1 7.52154 7.34833 2.85518 919.617 
419 1 10.1012 4.35394 2.48379 935.969 
420 1 10.1299 7.70821 -0.615818 917.122 
421 2 9.82288 7.50686 2.4622 926.539 
422 2 9.73419 4.7973 -0.157019 933.22 
423 2 7.38683 7.6259 -0.601933 928.577 
424 2 7.18634 4.47862 2.47309 930.835 
425 1 12.7718 4.45705 -0.517315 934.938 
426 1 12.5742 7.49571 2.20028 938.895 
427 1 15.6982 4.27728 2.54318 930.507 
428 1 15.7506 7.02316 -0.48188 914.214 
429 2 16.068 7.3564 2.12662 949.636 
430 2 15.63 4.09872 -0.466358 938.973 
431 2 12.9175 7.23455 -0.416129 931.525 
432 2 12.7095 4.9353 2.63505 926.891 
433 1 18.5901 4.51378 -0.0367508 959.07 
434 1 18.8559 7.5349 2.7719 947.379 
435 1 21.6658 4.39598 2.65714 936.426 
436 1 21.6268 7.27738 -1.00245 941.114 
437 2 22.0569 7.87284 2.75499 946.939 
438 2 21.6119 4.62117 -1.16669 946.705 
439 2 18.7498 7.37692 0.144285 936.698 
440 2 19.0231 4.59585 2.41685 931.306 
441 1 24.3379 4.5309 -0.0336916 942.021 
442 1 24.6425 7.75917 2.39639 938.426 
443 1 27.651 4.16322 3.22714 934.086 
444 1 27.5601 7.07788 0.248846 957.373 
445 2 27.1538 7.85027 2.82185 957.166 
446 2 26.9992 4.65807 0.210302 950.692 
447 2 24.3232 7.13668 -0.424518 954.04 
448 2 24.3402 4.42973 2.56778 937.533 
449 1 30.6157 4.12763 0.0610401 953.891 
450 1 30.0183 7.64957 2.46559 949.681 
451 1 33.587 4.93062 2.67246 935.08 
452 1 33.0982 7.94071 -0.171014 950.532 
453 2 33.1061 7.8933 2.89547 945.003 
454 2 32.9488 4.92276 -0.443244 971.426 
455 2 29.9389 7.21691 -0.2265 940.426 
456 2 30.1552 4.35818 2.75925 936.95 
457 1 36.1005 4.79585 0.268422 954.13 
458 1 35.5774 7.88095 2.92647 962.914 
459 1 39.065 4.40985 2.62041 961.578 
460 1 39.1174 7.82779 0.0884732 958.281 
461 2 39.061 8.3482 2.42599 964.649 
462 2 38.8544 4.74208 -0.436759 964.547 
463 2 35.8643 7.50474 -0.266792 951.96 
464 2 36.0339 4.84828 2.90781 972.625 
465 1 41.7551 4.95812 -0.299978 948.813 
466 1 42.0306 8.01379 2.37256 981.32 
467 1 44.3008 4.02846 2.52246 971.052 
468 1 44.6285 7.52709 -0.500184 966.365 
469 2 44.7199 8.05922 2.53131 965.623 
470 2 44.5472 4.59609 -0.597926 968.251 
471 2 41.7548 7.77492 -0.293083 986.937 
472 2 41.7518 4.73762 3.16694 984.693 
473 1 47.2873 4.58489 -0.264751 974.005 
474 1 47.6416 7.9763 3.08677 932.396 
475 1 49.9523 4.4933 2.25996 987.421 
476 1 50.4583 7.36114 -0.601651 966.805 
477 2 50.3457 7.83811 2.18978 979.879 
478 2 50.1296 4.27102 -0.2534 972.434 
479 2 47.2986 7.78943 -1.28138 951.423 
480 2 47.6428 5.22836 2.64171 969.227 
481 1 53.1516 4.39231 -0.531953 974.942 
482 1 53.5311 7.49063 2.43632 974.524 
483 1 56.1964 4.54969 2.09251 964.526 
484 1 55.6378 7.84551 -0.932443 959.893 
485 2 56.4129 7.60617 2.17416 982.503 
486 2 56.2534 4.24403 -0.61725 1006.33 
487 2 52.9248 7.98576 -0.438207 976.447 
488 2 53.5891 4.82874 2.35954 987.708 
489 1 59.0209 5.25506 -0.98092 989.649 
490 1 59.111 7.77088 2.25515 995.154 
491 1 61.5085 4.75294 2.28942 965.968 
492 1 61.7471 7.68137 -0.578337 970.413 
493 2 61.9454 7.18551 1.80891 992.556 
494 2 61.5176 4.13963 -0.90129 983.137 
495 2 59.0828 7.58404 -0.864604 990.412 
496 2 59.1386 4.53027 1.84649 981.555 
497 1 63.982 4.63484 -0.757849 978.521 
498 1 64.9694 7.1067 1.74843 996.848 
499 1 67.6541 4.24125 2.17302 1005.17 
500 1 67.977 7.23102 -0.64777 1013.73 
501 2 67.9376 7.11445 2.77262 979.293 
502 2 67.6296 4.58487 -0.500573 985.719 
503 2 64.5559 7.3142 -1.16837 970.816 
504 2 64.6819 4.35503 1.984 977.936 
505 1 70.259 3.93093 -0.549495 1003.13 
506 1 70.6353 7.23495 2.0464 997.732 
507 1 73.6519 3.86468 2.61763 979.443 
508 1 73.516 6.92289 -0.132745 997.803 
509 2 73.5255 7.30368 2.74938 987.993 
510 2 73.3962 4.37707 -0.328462 1000.1 
511 2 70.7834 7.37473 -0.30298 991.323 
512 2 70.569 4.11311 2.37143 976.047 
513 1 76.4446 4.16859 -0.176107 1015.95 
514 1 76.4405 6.92811 2.30366 1026.13 
515 1 79.4557 4.13489 1.69248 1016.36 
516 1 79.3017 7.61795 -1.0853 1017.21 
517 2 79.41 7.26867 2.14831 1024.83 
518 2 79.4547 4.67598 -0.838251 1011.28 
519 2 76.1699 7.49751 -0.552048 1023.2 
520 2 76.8366 4.40308 2.58367 995.845 
521 1 81.9124 4.29861 -0.560457 1000.35 
522 1 82.2894 7.24016 2.47136 1003.65 
523 1 85.3563 4.76443 2.46208 1006.15 
524 1 84.8619 7.39289 -0.317701 999.548 
525 2 85.0777 7.35958 2.25381 1007.76 
526 2 85.2654 4.55131 -0.584524 1039.16 
527 2 81.9182 7.9189 -0.136454 1010.1 
528 2 82.1214 4.59519 2.15358 993.668 
529 1 87.9335 4.82236 -0.411076 1017.87 
530 1 88.1136 7.45049 2.08418 1016.91 
531 1 91.1861 4.47233 2.62054 1010.78 
532 1 91.3395 7.46276 -0.630684 1000.93 
533 2 91.4255 7.49732 2.48347 1011.6 
534 2 90.7552 4.82129 0.0134459 1016.31 
535 2 88.3349 7.77589 -0.540267 1020.94 
536 2 87.8696 4.95585 2.12474 1021.97 
537 1 94.0667 4.68387 -0.391116 1018.7 
538 1 93.811 7.27511 2.88962 1053.48 
539 1 96.9634 4.60015 2.98443 1035.79 
540 1 97.0476 7.81262 -0.759941 1040.63 
541 2 97.0605 7.42268 2.75179 1045.07 
542 2 97.0449 4.87413 -0.615523 1044.61 
543 2 94.0984 7.82059 -0.276391 1049.83 
544 2 94.2638 4.83868 2.72099 1036.69 
545 1 99.5584 4.16856 -0.519165 1025.46 
546 1 99.6769 7.09364 2.23279 1046.18 
547 1 102.462 4.38744 2.89164 1056.11 
548 1 102.897 7.31311 -0.36614 1033.8 
549 2 102.718 7.39274 2.52618 1025.77 
550 2 102.598 4.1327 -0.203702 1048.55 
551 2 99.5458 7.72841 -0.686305 1037.78 
552 2 99.8248 4.14933 2.50708 1013.69 
553 1 106.049 4.19513 0.123346 1062.61 
554 1 105.497 7.04359 2.59962 1061.68 
555 1 108.394 4.45689 2.75859 1049.93 
556 1 108.288 7.69999 -0.263734 1023.76 
557 2 107.892 7.46014 2.61029 1046.29 
558 2 108.666 4.3424 -0.185355 1041.13 
559 2 105.606 7.25015 -0.189988 1047.52 
560 2 105.601 4.20613 2.50473 1043.9 
561 1 111.313 3.61 -0.706157 1036.9 
562 1 111.04 7.80286 2.68253 1044.16 
563 1 114.142 4.91643 2.07931 1047.73 
564 1 114.162 7.06419 -0.766848 1077.45 
565 2 113.741 7.45824 2.35219 1071.97 
566 2 113.757 4.27349 -0.736331 1066.78 
567 2 110.893 7.4182 0.130077 1044.27 
568 2 111.31 4.28078 2.50266 1064.03 
569 1 117.075 4.53237 -0.564756 1036.1 
570 1 117.45 7.32632 2.9637 1066.92 
571 1 120.594 4.22427 2.54511 1075.59 
572 1 120.171 7.32394 -0.687573 1076.13 
573 2 120.135 7.43898 3.17228 1060.71 
574 2 119.88 4.56154 -0.259047 1049.88 
575 2 116.957 7.22049 -0.698213 1063.41 
576 2 117.098 4.64602 2.74848 1073.92 
577 1 122.626 4.54249 -0.11802 1066.92 
578 1 123.086 7.6667 2.74328 1048.16 
579 1 126.057 4.53527 2.75038 1053.96 
580 1 125.53 7.09442 -0.32834 1081.62 
581 2 125.956 7.22371 2.34543 1077.66 
582 2 125.542 4.14533 -0.484139 1064.9 
583 2 122.788 7.22815 -0.109047 1058.34 
584 2 123.369 4.3546 2.66176 1053.56 
585 1 128.893 5.19222 -0.773614 1077.85 
586 1 128.749 7.92734 2.37267 1096.03 
587 1 131.619 4.61769 2.28205 1075.69 
588 1 131.883 7.52495 -1.23873 1079.7 
589 2 131.573 7.41009 2.13478 1093.43 
590 2 131.38 4.19512 -1.14995 1082.73 
591 2 129.208 7.85256 -0.718456 1068.81 
592 2 128.839 4.63084 1.91146 1048.85 
593 1 134.703 4.55946 -0.453569 1089.86 
594 1 134.243 7.7299 2.53865 1094.15 
595 1 137.579 4.75054 1.79088 1081.28 
596 1 137.259 7.58959 -0.537344 1074 
597 2 137.563 7.32937 2.35082 1089.46 
598 2 137.682 4.81702 -0.828608 1089.63 
599 2 134.766 7.46923 -0.986164 1079.79 
600 2 134.486 4.54793 2.32399 1080.67 
601 1 140.569 4.23346 -1.02613 1096.69 
602 1 140.388 7.62842 2.43207 1107.71 
603 1 143.845 3.78929 3.07104 1101.31 
604 1 143.442 6.95455 0.0609113 1087.9 
605 2 143.209 7.86026 2.47006 1111.72 
606 2 143.144 4.62382 -0.551789 1106.16 
607 2 140.606 7.97203 -0.232202 1076.1 
608 2 140.519 4.28877 2.10549 1107.03 
609 1 145.994 1.38356 14.6148 1070.09 
610 1 146.777 4.51854 0.0651456 1072.74 
611 1 149.234 4.53848 2.78637 1084.99 
612 1 149.607 7.48177 -0.487206 1101.16 
613 2 149.314 7.85048 2.79516 1060.52 
614 2 149.594 4.95162 -0.754496 1084.09 
615 2 147.143 7.39367 -0.190313 1100.29 
616 2 146.343 4.84492 2.46718 1090.98 
617 1 152.215 4.5879 -0.868425 1090.49 
618 1 152.016 7.18686 2.53707 1079.25 
619 1 155.251 4.67371 2.77318 1076.3 
620 1 154.964 7.38236 -0.25062 1071.66 
621 2 155.305 7.45565 2.6592 1068.96 
622 2 154.822 4.22744 0.321609 1098.97 
623 2 152.289 7.52178 -0.0360698 1082.03 
624 2 151.757 4.74829 2.84499 1065.84 
625 1 158.322 4.38528 0.154826 1074.82 
626 1 158.342 7.71828 2.51394 1077.96 
627 1 161.025 4.18846 2.73213 1074.56 
628 1 161.556 7.47588 -0.431926 1071.52 
629 2 160.666 7.17656 2.47772 1067.56 
630 2 161.607 4.41283 0.0145089 1080.43 
631 2 157.568 7.22718 -0.136422 1100.72 
632 2 158.074 4.48653 2.76799 1062.63 
633 1 164.042 4.53073 -0.184363 1071.97 
634 1 164.125 7.44114 3.05534 1064.16 
635 1 167.084 4.65719 2.45203 1075.97 
636 1 166.918 7.94453 -0.760027 1042.18 
637 2 166.853 7.61758 2.645 1063.43 
638 2 166.975 4.71914 -1.11667 1083.67 
639 2 164.189 7.41151 -0.696888 1073.49 
640 2 164.356 4.68745 2.76702 1053.51 
641 1 169.453 4.34372 -0.963069 1050.94 
642 1 169.823 7.68951 2.61589 1057.68 
643 1 172.568 4.09798 2.22143 1034.99 
644 1 171.613 7.29338 -1.03465 1057.23 
645 2 172.465 7.81851 2.47673 1044.79 
646 2 172.614 5.18821 -0.530902 1044.61 
647 2 169.444 7.83759 0.0104653 1060.7 
648 2 170.017 4.5164 2.79397 1057.59 
649 1 175.22 4.75495 -0.526402 1071.06 
650 1 175.225 7.4257 2.68138 1049.88 
651 1 178.849 4.2313 2.58909 1040.63 
652 1 178.468 7.25345 0.0103898 1039.04 
653 2 178.921 6.981 2.70852 1048.28 
654 2 178.898 4.31706 -1.27332 1060.02 
655 2 175.79 7.3027 -0.588682 1061 
656 2 175.916 4.53372 2.07385 1049.78 
657 1 181.884 4.52103 -0.193921 1044.49 
658 1 182.061 8.07731 2.39839 1053.54 
659 1 184.68 4.65296 2.12804 1028.53 
660 1 184.178 7.80828 -0.590413 1029.7 
661 2 184.475 7.48535 2.78275 1024.55 
662 2 184.732 4.70585 -0.769154 1042.33 
663 2 181.68 7.81241 0.113448 1044.84 
664 2 181.571 4.32503 2.31188 1020.4 
665 1 187.872 4.17946 -0.380915 1034.04 
666 1 187.86 7.6372 2.58257 1044.81 
667 1 190.214 4.33647 2.72412 1023.72 
668 1 190.455 7.85428 -0.00713337 1014.78 
669 2 190.387 6.82324 2.46999 1032.04 
670 2 190.439 4.34565 -0.570367 1017.82 
671 2 187.544 8.17208 0.185281 1059.06 
672 2 187.593 4.74438 2.03174 1020.84 
673 1 193.459 4.77808 -0.666761 1050.32 
674 1 193.044 7.651 2.70207 1027.98 
675 1 196.206 4.73187 2.76506 1022.59 
676 1 195.893 8.07896 -0.15123 1022.35 
677 2 195.751 7.71023 2.66996 1023.88 
678 2 196.133 4.55521 -0.430952 1036.79 
679 2 193.101 7.80776 -0.365629 1025.95 
680 2 193.072 4.71682 2.50103 1012.83 
681 1 198.587 4.3801 -0.508062 1036.71 
682 1 198.84 7.02327 2.82668 1012.55 
683 1 201.336 4.48679 2.08615 1010.89 
684 1 201.697 7.75857 -0.451344 1038.98 
685 2 201.663 7.34164 2.47401 990.581 
686 2 201.444 4.335 -0.564301 1015.82 
687 2 198.692 7.66246 -0.0821268 1026.5 
688 2 198.778 4.4283 3.0861 1017.81 
689 1 204.327 4.12727 -0.177182 996.249 
690 1 204.475 7.38967 2.2815 1018.79 
691 1 207.891 4.53777 2.67827 1008 
692 1 207.733 7.51116 -0.566642 1001.83 
693 2 207.473 8.44193 2.55629 1025.15 
694 2 207.256 3.75099 -0.328258 1035.63 
695 2 205.322 7.12129 -0.537483 1023.19 
696 2 204.132 4.84635 2.34 1031.88 
697 1 210.849 4.89206 0.00143441 1034.26 
698 1 210.705 7.70628 2.76823 1020.76 
699 1 212.935 4.79809 2.85741 1020.88 
700 1 213.428 7.20386 -0.959829 1005.24 
701 2 213.574 7.35964 2.37535 1023.4 
702 2 213.255 4.65686 -1.34946 1016.38 
703 2 210.576 7.67285 -0.0984974 1004.04 
704 2 210.586 4.46511 2.74295 1031.69 
705 1 216.482 4.7271 -0.77834 996.278 
706 1 216.347 7.34193 2.21741 1001.37 
707 1 218.859 4.89899 3.04689 991.149 
708 1 219.104 7.49902 -0.508758 1001.27 
709 2 218.948 7.94157 2.2375 995.837 
710 2 219.147 5.06697 -1.31936 982.283 
711 2 216.535 7.03116 -0.395696 974.988 
712 2 216.341 4.69621 2.26978 990.79 
713 1 222.037 4.81545 -1.12708 1011.18 
714 1 221.902 8.09665 1.94773 994.158 
715 1 224.716 5.09228 2.11934 969.404 
716 1 225.26 8.0231 -0.354285 981.996 
717 2 224.715 8.39147 2.46394 988.618 
718 2 224.998 5.54573 -0.592534 1002.99 
719 2 221.755 7.98159 -0.900492 976.667 
720 2 221.929 5.08857 2.41961 982.531 
721 1 227.257 4.52371 -0.382176 1006.52 
722 1 227.678 8.04239 2.36105 987.61 
723 1 230.558 5.21069 2.29996 988.939 
724 1 230.419 7.58355 -0.682485 987.037 
725 2 230.504 7.53374 2.1765 985.62 
726 2 230.192 4.42006 -0.731736 978.648 
727 2 227.743 8.18611 -0.642715 984.18 
728 2 227.376 4.97737 2.32756 977.33 
729 1 233.716 4.58122 -0.423697 977.145 
730 1 233.316 8.03036 1.988 984.832 