ITEM: TIMESTEP
9500000
ITEM: NUMBER OF ATOMS
8400
ITEM: BOX BOUNDS pp pp pp
-5.9099547646241319e+00 2.8359995476463484e+02
-2.1446273254920634e+00 4.0174627325491812e+01
-1.7757301867509554e+00 1.6325730186751606e+01
ITEM: ATOMS id type x y z f_TolTpA 
1 1 -4.99474 -1.47191 -0.889182 908.747 
2 1 -4.58518 1.51692 2.48631 896.138 
3 1 -1.57108 -1.84457 2.04216 913.887 
4 1 -1.82643 1.67646 -0.774824 900.476 
5 2 -1.75316 1.62171 2.05518 901.033 
6 2 -2.08986 40.1699 -0.543309 907.203 
7 2 -4.74462 1.16047 -1.00201 905.553 
8 2 -4.51097 -1.1331 2.45561 898.839 
9 1 0.603907 -1.67776 -0.52922 906.992 
10 1 0.973722 1.37268 1.70387 917.572 
11 1 4.61388 -1.23156 1.81525 908.55 
12 1 4.05226 1.27543 -1.17171 893.531 
13 2 4.12647 1.49334 2.14342 909.861 
14 2 4.44044 -1.79952 -1.14326 900.945 
15 2 0.78858 1.39071 -1.08742 916.97 
16 2 1.34229 -1.58045 1.87249 902.025 
17 1 7.18261 -1.82426 -0.77405 902.001 
18 1 6.83137 1.17117 1.95562 914.71 
19 1 9.62595 -1.49282 2.30579 926.483 
20 1 9.74593 1.71049 -0.594433 944.864 
21 2 9.89254 1.36888 1.8513 919.733 
22 2 9.72413 40.1612 -0.591915 914.92 
23 2 6.95292 1.19499 -1.11987 915.162 
24 2 6.92859 -1.72561 1.81655 918.786 
25 1 12.1897 40.0365 -0.84535 950.474 
26 1 12.597 1.43637 2.02127 936.737 
27 1 15.3973 -1.5235 2.1921 960.862 
28 1 15.2273 0.917541 -0.895379 947.952 
29 2 15.4438 1.57155 2.67375 957.002 
30 2 15.3524 -1.53121 -0.836205 925.194 
31 2 12.7075 1.50142 -0.388732 951.334 
32 2 12.476 -1.80089 2.04379 976.522 
33 1 18.7552 -1.4617 -0.43933 938.788 
34 1 18.2787 1.32414 2.07211 932.837 
35 1 21.741 -1.56037 2.27204 934.14 
36 1 21.6765 1.383 -0.750609 941.294 
37 2 21.4237 1.13354 2.33511 932.343 
38 2 21.3895 -1.79107 -0.570978 966.556 
39 2 18.8051 1.53853 -0.684509 940.081 
40 2 17.9599 -1.37707 1.9783 931.255 
41 1 24.4307 -1.64869 -0.324065 954.041 
42 1 24.2833 1.15787 2.78426 945.799 
43 1 27.7721 -1.58255 2.52846 957.389 
44 1 27.2841 1.37515 -0.216469 961.768 
45 2 27.1019 1.46862 2.83368 961.733 
46 2 27.2981 -1.6643 -0.369896 930.636 
47 2 24.1619 1.47782 -0.417028 944.57 
48 2 24.6676 -1.3216 2.56709 943.145 
49 1 30.5716 -1.81571 -0.471409 966.797 
50 1 30.4392 1.4011 2.69095 954.645 
51 1 33.014 -1.38168 2.75825 967.437 
52 1 33.2219 1.35501 -0.64041 976.358 
53 2 33.1095 1.32135 2.19826 972.947 
54 2 33.2771 39.7984 -0.105096 952.607 
55 2 30.0311 0.896411 -0.582222 963.801 
56 2 30.3666 -1.46483 2.73651 965.767 
57 1 36.2411 -1.84181 -0.310162 967.46 
58 1 35.8813 1.36112 2.40544 958.583 
59 1 38.7039 -1.5527 2.36585 980.265 
60 1 38.5684 1.43728 -0.433325 981.085 
61 2 38.318 1.84537 2.40401 959.242 
62 2 38.9641 -1.40478 -0.937689 960.183 
63 2 35.478 0.766841 -0.142393 980.448 
64 2 36.0661 -1.60899 2.3859 982.201 
65 1 41.9543 -1.83551 -1.10621 964.989 
66 1 41.5947 1.34211 2.22929 996.519 
67 1 44.5722 -1.87137 2.44196 994.788 
68 1 44.517 1.3626 -0.25841 992.847 
69 2 44.5162 1.25013 2.44455 988.774 
70 2 44.5297 -1.67195 -0.572526 974.904 
71 2 41.2979 1.28922 -0.363143 981.348 
72 2 41.6323 -1.89582 2.21611 973.058 
73 1 47.079 -1.63969 -0.407022 990.485 
74 1 47.0562 1.01941 2.93847 971.949 
75 1 50.6926 -1.81596 2.98918 965.964 
76 1 50.1613 1.02097 -0.318635 976.489 
77 2 50.687 1.15997 2.84384 982.72 
78 2 50.8399 -1.67329 -0.458916 988.188 
79 2 47.3749 0.904689 -0.275459 979.352 
80 2 47.5318 -2.02612 2.33409 982.49 
81 1 54.0142 -1.34188 -0.300049 990.192 
82 1 53.4839 1.43057 2.70015 970.141 
83 1 56.3523 -1.23322 3.00623 991.689 
84 1 56.5321 1.28453 0.324935 993.373 
85 2 56.308 1.42177 2.77953 988.958 
86 2 56.2498 -1.96766 0.241329 988.665 
87 2 53.7119 1.50804 -0.443242 990.975 
88 2 53.491 -2.00788 3.2554 982.297 
89 1 58.6676 40.1171 -0.0326684 992.199 
90 1 59.4197 1.22987 2.35071 985.098 
91 1 61.6068 -1.67457 2.2828 985.708 
92 1 61.6263 1.51588 -0.379647 1004.39 
93 2 61.7068 1.23636 2.55459 995.225 
94 2 61.9528 40.0936 -0.319118 987.56 
95 2 59.1785 1.36671 -0.264973 991.489 
96 2 58.8892 -1.44465 2.70137 1015.12 
97 1 65.2216 40.0502 -0.305255 1015.35 
98 1 64.8124 2.03925 2.3762 1004.73 
99 1 67.2066 -1.43026 3.46214 976.92 
100 1 67.705 1.91532 -0.786278 994.198 
101 2 67.2767 1.20266 3.18664 1001.24 
102 2 67.6036 -1.7102 -0.00625565 1001.9 
103 2 64.6701 2.05692 -0.00413079 1004.87 
104 2 64.5552 -1.84053 3.06579 997.401 
105 1 70.4456 -1.17813 0.142661 1009.61 
106 1 70.4487 1.70972 2.96258 1012.53 
107 1 74.2702 -1.64979 2.49424 1001.58 
108 1 73.6139 1.08874 -0.765019 989.6 
109 2 74.1005 1.4721 2.84221 997.462 
110 2 73.1108 -1.62456 0.157031 1008.84 
111 2 70.4029 1.63892 0.218931 1012.85 
112 2 69.9775 -1.42013 3.20037 1006.61 
113 1 76.6248 -1.78051 0.121353 1018.34 
114 1 76.5934 1.42298 2.72481 992.37 
115 1 79.2258 -1.69146 2.91955 1004.52 
116 1 79.3429 1.24684 -0.522938 998.865 
117 2 79.3596 1.70647 2.15883 1027.97 
118 2 79.3843 -1.91816 -0.158351 1003.58 
119 2 76.665 0.960563 -0.0852758 1000.83 
120 2 76.8554 -1.98652 3.46756 1008.81 
121 1 82.2328 -1.62652 0.199056 1003.49 
122 1 82.9021 0.85617 2.90883 1002.06 
123 1 85.8302 -1.59983 2.61764 1026.54 
124 1 85.0271 0.680532 -0.661964 1014.38 
125 2 85.2741 1.23533 2.62048 1011.63 
126 2 85.9246 -1.96828 -0.136645 1036.67 
127 2 81.8333 0.861613 -0.837683 1018.45 
128 2 82.1263 -1.56671 3.12439 1018.9 
129 1 88.5776 -1.4873 -0.149883 1030.07 
130 1 88.3925 1.44299 2.50603 1026.73 
131 1 91.8691 -1.63346 1.80567 1027.84 
132 1 91.513 1.26581 -1.05582 1020.66 
133 2 91.2039 1.92392 2.93364 1045.99 
134 2 91.4847 -1.29615 -0.626284 1018.03 
135 2 88.8521 0.985634 -0.802639 1037.35 
136 2 88.289 -1.24049 2.44363 1049.03 
137 1 94.3856 -1.52748 -1.03469 1016.3 
138 1 94.1815 1.75716 2.76755 1034.36 
139 1 96.9196 -1.07555 3.11585 1064.91 
140 1 96.5945 1.41618 -0.999994 1045.72 
141 2 97.3044 1.63912 2.68087 1035.95 
142 2 96.8038 -1.90533 -0.214623 1050.95 
143 2 94.1026 0.898372 -0.648605 1063.41 
144 2 94.283 -0.933109 2.91018 1022.18 
145 1 100.012 -1.74434 -0.482811 1042.19 
146 1 100.067 1.67145 2.48948 1036.97 
147 1 102.554 -1.87213 2.79145 1058.24 
148 1 102.768 1.23282 -0.786313 1040.98 
149 2 102.675 1.46979 2.89558 1026.33 
150 2 102.387 -2.08348 -1.22105 1035.42 
151 2 99.9628 0.901291 -0.53446 1018.06 
152 2 99.6553 -1.92852 2.40506 1051.12 
153 1 105.722 -1.37277 -0.247305 1054.73 
154 1 105.94 1.01235 3.07419 1052.73 
155 1 108.362 -1.98679 2.27963 1039.42 
156 1 108.186 1.88086 -0.329062 1048.58 
157 2 108.373 1.66112 2.06981 1072.51 
158 2 108.598 -1.85043 -0.471238 1072.7 
159 2 105.392 1.36217 -1.05119 1053.33 
160 2 105.386 -1.22238 2.14471 1053.96 
161 1 111.363 -0.948248 -0.58967 1050.49 
162 1 111.084 1.47946 2.64035 1064.12 
163 1 113.577 -0.845913 2.33496 1079.46 
164 1 114.756 1.46778 -0.602413 1056.78 
165 2 114.878 1.63183 2.09661 1073.27 
166 2 113.87 -1.0071 -0.277139 1057.06 
167 2 111.462 1.3572 -0.504688 1056.47 
168 2 110.913 -0.856985 2.19169 1034.59 
169 1 117.525 -1.58011 -0.79591 1040.09 
170 1 117.797 1.48449 1.96739 1060.94 
171 1 120.369 -1.91844 3.17572 1070.34 
172 1 120.626 1.62891 -0.245851 1081.99 
173 2 120.399 1.61719 2.4229 1067.34 
174 2 119.983 -1.28838 -0.941762 1059.04 
175 2 117.661 1.16442 -0.539564 1076.76 
176 2 117.38 -1.55693 2.51707 1075.3 
177 1 123.287 -1.61437 -0.795742 1071.74 
178 1 122.796 0.764217 1.93353 1078.14 
179 1 125.76 -1.25896 2.49755 1075.63 
180 1 126.074 1.83143 0.154874 1057.8 
181 2 126.151 2.00993 3.11612 1078.88 
182 2 125.746 -0.855716 0.00475639 1067.36 
183 2 123.199 1.35455 -0.281182 1070.07 
184 2 122.887 -1.81518 2.67863 1076.05 
185 1 128.705 -1.19883 0.102432 1083.75 
186 1 129.587 1.17677 2.59691 1043.38 
187 1 132.228 -1.36752 2.7908 1055.53 
188 1 132.056 1.39829 -0.856154 1068.51 
189 2 132.152 1.18785 2.8848 1062.34 
190 2 132.355 -0.924691 -0.503524 1071.47 
191 2 129.399 1.42349 -0.219325 1054.93 
192 2 128.403 -1.29016 2.93067 1064.93 
193 1 135.161 -0.522403 -0.366393 1076.49 
194 1 135.396 1.91828 2.98188 1089.43 
195 1 138.36 -0.715093 3.27311 1063.37 
196 1 137.975 1.39621 -0.422317 1074.85 
197 2 138.208 2.03732 2.37587 1080.84 
198 2 138.368 -1.0562 -0.719473 1094 
199 2 135.033 1.973 -0.487925 1069.93 
200 2 135.174 -0.648912 3.22545 1076.26 
201 1 140.992 -0.79745 -1.00865 1105.08 
202 1 141.062 1.85035 2.70795 1101.01 
203 1 143.898 -0.583849 2.55685 1101.19 
204 1 143.703 2.5237 0.0375781 1110.47 
205 2 143.788 2.17022 3.44047 1096.94 
206 2 143.281 -0.653406 -0.0280796 1085.88 
207 2 140.703 1.9036 0.105008 1101.39 
208 2 140.758 -1.1952 3.34516 1087.3 
209 1 146.166 -0.77811 -0.496911 1091.01 
210 1 146.472 1.82586 2.81944 1094.11 
211 1 149.08 -1.03328 2.19757 1098.22 
212 1 149.392 2.03821 -0.105861 1060.52 
213 2 149.397 1.75728 2.44341 1086.29 
214 2 149.441 -0.921192 -0.409453 1082.63 
215 2 146.245 1.79854 0.0751007 1081.28 
216 2 146.496 -1.13323 2.83203 1091.41 
217 1 152.658 -0.570483 -0.545819 1105.48 
218 1 152.478 1.83138 2.56698 1065.74 
219 1 155.389 -0.631596 3.05435 1071.5 
220 1 155.485 2.41597 -0.636576 1077.67 
221 2 154.952 2.82361 2.98749 1083.02 
222 2 155.479 -0.904173 -0.76826 1073.74 
223 2 152.677 1.93799 -0.620155 1077.75 
224 2 152.758 -0.639294 2.38505 1072.66 
225 1 158.292 -0.524797 -0.276284 1076.66 
226 1 158.037 2.29811 2.64514 1063.85 
227 1 161.078 -1.06277 2.66803 1080.99 
228 1 160.943 2.32334 -0.570218 1083.23 
229 2 161.237 2.64058 1.71776 1086.42 
230 2 161.111 -0.651826 -0.0211569 1076.29 
231 2 157.906 2.46653 -0.00873705 1078.63 
232 2 158.035 -0.692315 2.30105 1076.53 
233 1 163.986 -0.672205 0.26895 1070.21 
234 1 163.491 2.35332 2.65833 1063.89 
235 1 167.134 -0.984064 2.51299 1047.99 
236 1 167.008 2.2027 -0.341931 1063.33 
237 2 167.005 2.48242 2.76241 1067.42 
238 2 166.419 -1.40779 -1.11266 1050.68 
239 2 164.084 2.04346 -0.687993 1086.88 
240 2 164.544 -1.15396 2.8245 1061.99 
241 1 170.313 -0.64781 -0.445934 1072.89 
242 1 169.976 1.92876 2.4057 1072.11 
243 1 172.894 -0.779047 1.90383 1080.45 
244 1 172.297 2.27306 -0.850231 1054.4 
245 2 172.983 2.04121 1.91106 1062.01 
246 2 173.036 -0.869712 -0.63004 1044.19 
247 2 169.811 2.07811 -0.180895 1049.04 
248 2 170.203 -0.888834 2.28849 1048.32 
249 1 176.449 -1.19933 -1.1747 1046.72 
250 1 175.996 1.33724 2.63865 1056.98 
251 1 178.684 -0.969053 2.12185 1052.01 
252 1 179.316 1.59735 -0.895816 1045.35 
253 2 178.8 1.69885 2.36452 1053.21 
254 2 179.56 -1.26855 -0.384986 1041.3 
255 2 176.69 1.21616 -0.967338 1042.73 
256 2 175.772 -0.986747 2.149 1052.51 
257 1 181.947 -1.02177 -0.230351 1057.65 
258 1 181.823 2.0584 2.58198 1044.7 
259 1 184.971 -1.31854 2.71634 1046.32 
260 1 184.69 2.57792 -0.0214692 1022.39 
261 2 184.785 1.98776 2.83923 1048.47 
262 2 184.708 -1.33455 -0.375725 1045.82 
263 2 181.873 2.1894 -0.0978042 1041.59 
264 2 182.03 -1.52009 3.03264 1046.11 
265 1 187.508 -1.20273 -0.781293 1029.71 
266 1 187.568 1.95572 2.40321 1057.97 
267 1 190.273 -1.29318 2.47915 1030.56 
268 1 190.326 2.34754 -0.541255 1038.42 
269 2 190.087 2.82458 2.46738 1037.44 
270 2 190.274 -1.19255 -0.239016 1044.07 
271 2 187.394 2.24801 -0.653991 1037.92 
272 2 187.392 -0.728533 2.65194 1042 
273 1 192.885 -1.76757 0.0644241 1027.5 
274 1 193.576 2.12091 2.16793 1009.61 
275 1 196.246 -0.946084 2.42517 1025.46 
276 1 195.68 1.26962 -0.364729 1023.89 
277 2 196.183 2.24692 2.34151 998.55 
278 2 195.368 -1.32873 0.0949088 1014.87 
279 2 192.695 1.84769 -0.083495 990.252 
280 2 193.061 -1.39924 2.73276 1033.82 
281 1 198.872 -1.45126 -0.55121 1016.43 
282 1 199.055 1.72981 2.2362 997.949 
283 1 201.6 -0.695842 1.90766 1007.75 
284 1 201.606 2.22454 -0.928401 996.635 
285 2 201.44 1.93833 2.00905 1011.44 
286 2 201.745 -1.22743 -0.641539 1008.34 
287 2 198.782 1.77207 -0.570895 998.743 
288 2 199.297 -1.29981 2.1121 1012.28 
289 1 204.206 -1.21236 -0.265253 1000.04 
290 1 204.148 2.48441 2.3427 1014.6 
291 1 207.795 -1.32564 2.34079 999.317 
292 1 207.192 1.62011 -0.796504 1022.82 
293 2 207.289 2.41328 1.88986 981.485 
294 2 207.262 -1.67452 -0.444613 1005.43 
295 2 204.328 1.59731 -0.952285 1004.45 
296 2 204.019 -1.49373 2.62616 1024.26 
297 1 210.523 -1.25582 -0.765298 1010.67 
298 1 209.939 2.20289 1.82565 1010.24 
299 1 213.742 -0.440523 2.31232 1004.99 
300 1 213.917 1.90949 -1.06069 1001.05 
301 2 213.798 2.29208 1.84098 984.841 
302 2 213.26 -1.08899 -0.395205 991.826 
303 2 210.753 1.93258 -1.17606 1008.6 
304 2 210.712 -1.03035 2.35418 987.471 
305 1 216.399 -0.728648 -0.664081 1001.19 
306 1 216.654 2.48857 2.46003 997.747 
307 1 219.16 -0.41522 2.22726 985.871 
308 1 218.98 2.7017 -0.501096 994.104 
309 2 219.501 2.44886 2.3151 982.845 
310 2 219.311 -0.829594 -0.896029 969.106 
311 2 216.719 2.64714 -0.338566 1008.98 
312 2 216.639 -0.423669 2.08498 965.869 
313 1 221.829 -0.795665 -0.475377 1001.21 
314 1 222.171 2.30625 2.4319 982.575 
315 1 224.855 -1.53038 2.22377 981.918 
316 1 225.041 1.81801 -0.39561 983.586 
317 2 225.188 2.50173 2.53027 975.928 
318 2 225.265 -1.13902 -0.231959 978.742 
319 2 222.477 2.20593 -0.530554 978.492 
320 2 221.945 -0.733731 2.09795 968.898 
321 1 227.512 -1.4888 -1.01438 956.603 
322 1 227.659 1.78685 2.59367 973.382 
323 1 230.398 -1.32195 2.56089 972.013 
324 1 230.229 1.82819 -0.87848 968.871 
325 2 230.78 1.4622 2.80677 972.539 
326 2 230.837 -1.30284 -0.4907 981.056 
327 2 227.717 2.07606 -0.066696 957.797 
328 2 227.522 -0.590307 2.91105 977.636 
329 1 233.972 -1.27438 -0.0141055 960.644 
330 1 233.005 1.43376 2.13647 956.729 
331 1 236.962 -1.28348 2.72211 969.82 
332 1 236.242 1.45184 -0.786969 950.505 
333 2 237.11 1.63921 2.37767 942.126 
334 2 236.536 -1.03433 -0.600211 969.464 
335 2 233.25 1.29768 -1.04482 932.293 
336 2 234.184 -1.04399 2.5067 969.151 
337 1 239.228 -1.13794 -0.674571 960.353 
338 1 239.503 2.34884 2.24278 959.19 
339 1 242.342 -1.88097 2.21379 973.175 
340 1 241.783 1.77871 -0.32976 964.391 
341 2 242.281 2.12597 2.3646 969.826 
342 2 241.743 -1.69797 -0.344406 938.232 
343 2 239.235 1.82245 -0.630346 954.912 
344 2 239.631 -1.34025 2.7694 954.488 
345 1 244.908 -1.45901 -0.955492 975.146 
346 1 244.725 1.68681 1.81793 953.242 
347 1 247.452 -1.58743 2.43351 965.321 
348 1 247.48 1.97025 -0.657441 953.579 
349 2 247.384 1.85222 1.73197 959.641 
350 2 247.647 -1.41435 -0.891741 954.825 
351 2 244.424 1.56563 -0.941578 954.003 
352 2 244.933 -1.35308 1.88939 948.299 
353 1 250.827 -0.938042 -0.90144 921.436 
354 1 250.35 2.01175 1.63856 946.442 
355 1 253.033 -1.34315 2.07289 955.207 
356 1 253.663 2.43054 -1.18789 939.78 
357 2 253.893 2.00045 1.97102 936.537 
358 2 253.757 -1.44723 -0.802841 948.258 
359 2 251.197 1.96036 -0.958728 942.405 
360 2 250.408 -1.12482 2.08651 951.97 
361 1 256.384 -1.61191 -0.75314 949.33 
362 1 256.635 1.68804 1.2977 945.557 
363 1 259.295 -1.38631 2.44554 916.694 
364 1 259.485 1.05887 -1.15216 972.58 
365 2 258.945 1.07998 2.12475 946.484 
366 2 259.106 -1.97065 -0.592419 947.281 
367 2 256.373 1.36446 -1.16561 976.366 
368 2 256.572 -2.01913 2.37518 953.455 
369 1 261.928 -1.50508 -0.947578 941.024 
370 1 262.538 1.04549 2.09757 933.329 
371 1 264.837 -1.87394 2.92827 943.341 
372 1 264.958 0.218708 -0.723286 940.896 
373 2 264.769 1.26539 2.38557 959.293 
374 2 265.825 39.9141 -0.677033 934.498 
375 2 262.429 0.834164 -0.709704 917.251 
376 2 262.123 -1.68251 2.19058 936.548 
377 1 268.408 39.8056 -1.05012 927.019 
378 1 267.539 1.55314 2.56727 926.432 
379 1 270.457 -1.84463 2.44943 942.232 
380 1 271.002 0.906441 -0.0477784 937.016 
381 2 271.037 2.25198 2.22029 920.749 
382 2 270.903 40.0394 -0.11941 941.596 
383 2 267.505 1.29532 -0.0479164 930.153 
384 2 267.679 -1.4486 2.69309 932.798 
385 1 273.592 -1.58316 -0.296102 909.997 
386 1 273.767 2.23769 2.12033 941.895 
387 1 276.932 -1.91902 2.15459 894.793 
388 1 276.442 1.71022 -0.948701 916.11 
389 2 276.536 1.31652 2.12504 908.516 
390 2 276.185 -1.97272 -0.523009 915.709 
391 2 273.835 1.51279 -0.449044 904.373 
392 2 273.387 -2.05864 2.39985 928.646 
393 1 278.878 -1.98692 -0.4723 915.933 
394 1 279.103 1.86939 1.92851 902.329 
395 1 282.009 -1.41722 2.02651 918.281 
396 1 282.196 1.66182 -0.711285 915.065 
397 2 282.111 1.3305 2.1542 914.543 
398 2 281.935 -1.87905 -0.718108 924.807 
399 2 279.784 1.63778 -0.839843 915.238 
400 2 279.23 -2.00936 2.31493 934.962 
401 1 -4.2092 4.51748 -0.45561 918.36 
402 1 -4.15474 7.16486 2.26755 893.217 
403 1 -1.09439 4.12095 2.56237 903.138 
404 1 -1.16929 7.16371 -0.435571 896.963 
405 2 -1.07552 6.67886 2.57842 897.026 
406 2 -1.44724 4.33673 -0.185177 895.142 
407 2 -4.13111 7.37011 -0.552393 885.301 
408 2 -4.75089 4.18958 2.35642 904.823 
409 1 1.5771 4.01851 -0.335955 901.966 
410 1 1.45875 7.41598 2.56865 912.205 
411 1 4.30942 4.33844 2.51563 914.802 
412 1 4.51216 7.0309 -0.477943 895.185 
413 2 4.20687 6.96407 2.59827 926.899 
414 2 4.20856 3.97009 -1.37942 908.622 
415 2 1.4747 6.95056 -0.868387 886.303 
416 2 1.66194 3.90609 2.35635 903.833 
417 1 6.91611 4.24011 -1.28159 909.97 
418 1 6.9403 7.74465 2.67387 925.405 
419 1 9.87542 4.60205 1.65936 937.11 
420 1 9.756 7.34894 -0.897114 920.826 
421 2 9.47546 7.23915 2.10077 921.165 
422 2 9.91345 4.7197 -1.28539 943.948 
423 2 7.3306 7.40082 -0.568097 903.743 
424 2 6.85178 4.20002 2.13294 914.918 
425 1 12.8246 4.74542 -1.31768 946.818 
426 1 13.0541 7.49637 1.96687 933.029 
427 1 15.4599 4.14333 2.35444 950.713 
428 1 15.9647 6.78918 -0.862892 930.606 
429 2 15.8969 7.03815 2.19643 936.754 
430 2 15.472 4.16854 -1.09492 962.763 
431 2 12.7861 7.31252 -0.653884 925.788 
432 2 12.5912 4.76312 2.01563 922.209 
433 1 18.6094 4.36543 -0.810858 958.221 
434 1 19.1892 6.78513 2.40548 952.122 
435 1 21.9063 3.7373 2.25234 925.285 
436 1 21.604 7.23678 -0.495523 923.025 
437 2 21.9976 7.24634 2.49868 943.332 
438 2 21.4421 3.84085 -0.569401 948.755 
439 2 18.8698 7.26455 -0.979879 945.244 
440 2 18.9917 4.02142 2.29655 959.488 
441 1 24.4161 4.7346 -0.577037 951.954 
442 1 24.5504 7.23492 2.15505 964.438 
443 1 27.2163 4.54296 2.17795 963.861 
444 1 27.1732 7.2156 -0.770949 929.793 
445 2 27.5238 7.06372 2.56128 966.271 
446 2 27.3831 4.43191 -0.134935 949.548 
447 2 24.6361 7.8117 -0.752457 947.159 
448 2 24.4381 4.33949 2.51922 939.369 
449 1 30.2247 4.22811 -0.180653 958.003 
450 1 30.1024 7.07125 2.2233 957.609 
451 1 33.0881 4.32523 2.5178 944.312 
452 1 32.9901 7.27252 -0.498333 947.553 
453 2 33.0924 7.22736 2.92471 961.816 
454 2 32.7966 4.90251 -0.325837 947.431 
455 2 30.2109 7.11806 -0.42154 976.031 
456 2 30.2987 4.05702 2.65297 965.879 
457 1 35.9922 4.64239 -0.774041 965.032 
458 1 35.7388 7.12806 3.00577 956.147 
459 1 38.41 4.33611 2.68541 982.621 
460 1 38.6945 7.59391 -0.0173216 959.712 
461 2 38.7109 7.03505 2.52189 975.246 
462 2 38.5193 4.67926 -0.733017 958.712 
463 2 35.8838 6.92801 -0.0301364 968.934 
464 2 35.7146 4.06822 2.74798 974.869 
465 1 41.4192 3.78175 0.0430843 993.187 
466 1 41.5158 6.95441 2.69081 959.524 
467 1 44.6921 4.0003 2.6304 986.669 
468 1 44.1769 7.36894 -0.0213771 981.938 
469 2 44.2522 7.15522 2.46556 959.284 
470 2 44.5885 4.30949 0.0340594 979.545 
471 2 41.4383 7.36082 -0.181928 985.562 
472 2 41.1972 3.96836 2.494 966.159 
473 1 47.7646 4.19436 -0.356291 993.195 
474 1 47.0622 6.7405 2.52487 966.892 
475 1 50.8951 3.90792 2.77032 974.288 
476 1 50.4027 6.97761 0.334863 972.599 
477 2 50.6559 6.7306 2.89691 991.066 
478 2 50.1279 3.5729 -0.707455 997.291 
479 2 47.2988 6.59309 -0.308705 982.636 
480 2 47.6268 3.86852 2.98572 960.85 
481 1 53.0765 4.1539 -0.720166 990.675 
482 1 53.5044 7.21644 2.36952 986.66 
483 1 56.4592 3.89379 2.74413 981.924 
484 1 56.3749 7.23424 -0.162115 1009.51 
485 2 56.5283 7.07953 2.96055 984.917 
486 2 56.4226 4.45541 -0.49773 991.008 
487 2 52.8561 7.15756 0.0278783 989.358 
488 2 53.6611 4.05456 2.63268 981.361 
489 1 59.2977 4.63224 -0.752507 1009.95 
490 1 58.9638 7.41008 2.6946 994.932 
491 1 61.9371 4.2084 2.6546 1015.1 
492 1 62.6697 7.87667 -0.34901 1016.11 
493 2 62.4182 7.61091 2.62348 988.19 
494 2 62.0192 4.04021 -0.138299 987.792 
495 2 58.9134 7.40537 -0.344578 975.29 
496 2 59.3385 4.16786 2.48888 994.906 
497 1 64.4149 4.53602 -0.21122 996.926 
498 1 65.1402 7.16593 3.38216 1004.46 
499 1 67.8432 4.44257 2.5012 994.036 
500 1 67.4731 7.59098 -0.340469 998.945 
501 2 67.6692 7.15589 2.53892 983.474 
502 2 67.5471 4.55701 -0.145851 990.734 
503 2 64.8976 7.78947 -0.673244 1001.56 
504 2 64.5879 4.55697 3.3075 995.34 
505 1 70.9768 3.94467 -0.612993 1013.79 
506 1 70.6244 7.12018 2.33923 1009.85 
507 1 73.5526 4.65867 2.75756 990.619 
508 1 73.34 7.02097 -0.724766 994.297 
509 2 73.5196 7.18678 2.00423 1020.69 
510 2 73.6251 4.04896 -0.524457 986.55 
511 2 70.3975 7.04105 -0.658192 1002.83 
512 2 70.9175 4.46696 2.69579 1021.44 
513 1 76.0796 4.19153 -0.146142 1001.4 
514 1 76.8143 7.10295 2.31308 999.324 
515 1 79.808 4.19446 2.26523 1001.15 
516 1 79.8571 7.66173 -1.12477 1009.6 
517 2 79.4735 7.24517 2.55404 989.679 
518 2 79.0654 4.45691 -0.683363 1023.25 
519 2 76.4173 7.36044 -0.846044 1005.51 
520 2 76.0582 4.43983 2.79712 1009.1 
521 1 82.9517 4.70242 -0.952132 1014.02 
522 1 82.2283 7.51418 2.70156 1016.81 
523 1 85.6747 4.34854 2.82017 996.611 
524 1 85.6105 7.25796 -0.490112 1003.16 
525 2 85.5171 7.87047 2.69415 1033.97 
526 2 85.5854 4.37114 0.145633 1036.01 
527 2 82.6748 7.35779 -1.32437 1017.39 
528 2 82.3725 4.95381 2.8076 1015.58 
529 1 88.7526 4.42229 -0.599651 1029.28 
530 1 88.2205 7.95216 3.10397 994.857 
531 1 91.0489 4.77138 2.76467 1038.41 
532 1 91.5067 7.47689 0.488304 1068.45 
533 2 90.8989 7.52343 2.91044 1007.87 
534 2 91.4323 4.77823 -0.210571 1017.28 
535 2 88.5659 7.69013 -0.897293 1010.83 
536 2 88.3307 4.11211 3.10086 1009.22 
537 1 93.9001 4.6277 -0.430367 1060.57 
538 1 94.1428 7.91512 2.92507 1036.95 
539 1 97.2437 4.70207 2.51261 1062.76 
540 1 96.3501 7.65372 -0.357121 1019.02 
541 2 96.8877 7.93733 2.32212 1037.04 
542 2 97.1662 4.44392 -0.479437 1041.7 
543 2 93.9033 7.84076 -0.0458479 1030.4 
544 2 93.7285 4.75302 2.50141 1021.64 
545 1 99.5933 4.27663 -0.74676 1035.51 
546 1 99.9011 7.34574 2.92438 1015.47 
547 1 102.627 4.18716 3.0354 1060.7 
548 1 102.501 7.49142 -0.284653 1036.66 
549 2 102.447 7.6991 2.85183 1054.97 
550 2 102.129 4.24049 -1.21575 1035.96 
551 2 99.4293 7.82028 -0.441361 1037.77 
552 2 99.9014 4.67646 2.38462 1035.25 
553 1 105.221 4.25674 -0.447168 1034.7 
554 1 105.931 7.41738 2.64413 1075.7 
555 1 108.42 4.51516 2.26772 1073.91 
556 1 108.761 7.23725 -0.661482 1054.86 
557 2 108.577 6.94321 3.18017 1056.21 
558 2 108.438 4.49415 -0.328015 1064.47 
559 2 105.192 6.96462 -0.499048 1082.85 
560 2 105.479 4.22677 2.13857 1053.03 
561 1 111.881 4.31875 -0.641676 1049.96 
562 1 111.496 7.293 2.39738 1071.34 
563 1 114.902 4.57824 2.61597 1039.03 
564 1 114.487 7.74684 -0.359476 1044.76 
565 2 114.389 7.4022 2.25068 1058.04 
566 2 114.998 4.40152 -0.959231 1064.31 
567 2 111.443 7.67278 -0.67397 1063.44 
568 2 111.712 4.51892 2.07186 1047.53 
569 1 117.309 4.51367 -0.341075 1068.95 
570 1 116.874 7.84133 2.00582 1047.84 
571 1 120.397 4.67763 2.6586 1063.41 
572 1 119.978 7.53254 -0.7449 1062.86 
573 2 119.909 7.59769 2.36207 1048.21 
574 2 120.347 4.51245 -0.487051 1076.99 
575 2 117.056 7.57554 -0.468755 1057 
576 2 117.636 4.26903 2.32287 1068.72 
577 1 123.192 4.39735 -0.491757 1067.74 
578 1 122.663 7.47234 2.62385 1064.73 
579 1 125.726 4.99508 3.32537 1068.54 
580 1 126.652 7.35011 0.0276885 1070.62 
581 2 126.473 7.46244 2.90228 1074.52 
582 2 126.442 4.49092 -0.0912571 1092.72 
583 2 123.043 7.57619 -0.721213 1057.41 
584 2 122.908 4.90751 2.84886 1076.29 
585 1 129.302 4.30964 -0.486695 1097.73 
586 1 129.124 7.01904 2.49697 1045.33 
587 1 132.003 4.71664 2.96445 1068.76 
588 1 132.512 7.5916 -0.313495 1086.69 
589 2 131.632 7.63335 2.45582 1088.35 
590 2 132.179 4.59569 -0.76424 1062.29 
591 2 129.357 7.41801 -0.14154 1058.5 
592 2 129.519 4.45216 2.28861 1073.91 
593 1 135.121 4.57923 -0.106519 1091.18 
594 1 135.214 8.15336 2.78061 1074.95 
595 1 138.424 5.00383 2.78951 1082.22 
596 1 137.983 8.18115 -0.802113 1096.51 
597 2 137.864 7.94534 2.92363 1103.76 
598 2 137.735 4.56261 0.112982 1097.71 
599 2 135.146 7.70542 -0.0235557 1083.84 
600 2 134.521 4.52777 2.45115 1091.01 
601 1 140.36 5.21192 0.112689 1111.94 
602 1 140.667 8.08924 2.87959 1096.6 
603 1 143.855 5.35769 2.78352 1107.63 
604 1 143.836 7.92544 -0.502619 1078.13 
605 2 144.292 8.05482 2.80959 1074.88 
606 2 143.866 5.29348 -0.17492 1118.12 
607 2 140.653 7.50031 -0.348018 1102.24 
608 2 141.351 5.38719 2.79884 1109.94 
609 1 146.153 2.41477 14.789 1075.19 
610 1 146.29 5.42223 -1.12802 1089.03 
611 1 149.402 4.74672 2.28284 1076.96 
612 1 149.314 8.42007 -0.353893 1080.37 
613 2 149.116 8.04868 2.91921 1068.38 
614 2 148.867 5.47037 -0.0450106 1077.36 
615 2 146.565 8.30179 -0.649183 1086.78 
616 2 146.669 4.93485 2.81901 1086.65 
617 1 152.303 5.54576 -0.337087 1091.9 
618 1 151.771 8.61844 3.00487 1103.41 
619 1 154.777 5.73993 2.41473 1090.16 
620 1 155.081 8.40629 -0.481987 1074.78 
621 2 155.218 8.53166 2.53254 1079.62 
622 2 154.717 5.67797 -0.0269721 1061.85 
623 2 152.065 8.53836 -0.206379 1059.34 
624 2 152.051 5.104 2.20816 1080.68 
625 1 158.603 4.80739 -0.0209169 1086.77 
626 1 158.096 8.4069 2.57307 1054 
627 1 161.305 5.84133 2.58063 1094.19 
628 1 160.882 8.41215 -0.177029 1060.35 
629 2 160.979 8.60209 2.99463 1074.26 
630 2 161.381 5.98183 -0.674561 1089.79 
631 2 158.089 8.79621 -0.143217 1085.71 
632 2 158.142 5.31911 3.02164 1082.57 
633 1 163.921 5.26039 -0.500102 1074.72 
634 1 164.227 8.51421 2.59836 1079.52 
635 1 166.938 5.08485 2.84545 1053.06 
636 1 166.593 7.82709 -0.696145 1080.94 
637 2 167.078 8.8393 2.8106 1075.42 
638 2 166.712 5.17389 -0.140299 1070.37 
639 2 163.934 8.5335 -0.178712 1064.33 
640 2 164.34 5.12426 2.86961 1067.27 
641 1 169.774 5.44284 -0.0925902 1049.77 
642 1 169.365 7.73647 2.82447 1061.98 
643 1 172.964 4.42233 2.38541 1060.92 
644 1 172.559 7.87091 -0.26591 1062.87 
645 2 172.363 7.33777 2.26378 1059.7 
646 2 172.532 5.09297 -0.643381 1053.89 
647 2 169.462 8.07602 -0.0962589 1059.99 
648 2 169.485 5.37391 3.21739 1086.12 
649 1 175.652 4.76996 -0.207269 1039.51 
650 1 175.21 7.89062 2.34251 1063.48 
651 1 178.549 4.7268 2.26079 1042.24 
652 1 178.292 8.38234 -0.952247 1049.4 
653 2 178.449 7.53012 2.47533 1030.94 
654 2 178.915 4.30058 -0.45996 1037.87 
655 2 175.127 8.39702 -0.687887 1078.21 
656 2 176.027 5.22996 2.15504 1064.21 
657 1 181.42 4.98828 -0.509607 1036.8 
658 1 181.648 7.98383 2.63696 1046.64 
659 1 184.928 5.9047 2.73275 1027.07 
660 1 183.995 8.2536 -0.344782 1031.25 
661 2 184.758 8.53155 2.76273 1031.47 
662 2 184.477 5.03717 -0.787124 1035.82 
663 2 181.114 7.70198 -0.795224 1051.12 
664 2 181.867 5.61817 1.99948 1070.4 
665 1 187.45 5.08352 -0.826907 1048.75 
666 1 187.471 8.39865 2.48516 1024.24 
667 1 190.131 5.67648 2.81039 1017.52 
668 1 190.329 8.30748 -0.669741 1053.67 
669 2 190.706 8.26416 2.81759 1028.8 
670 2 190.771 5.30304 -0.600475 1018.69 
671 2 186.959 7.94794 0.069533 1050.89 
672 2 187.631 5.50004 2.20183 1029.65 
673 1 193.406 4.98215 -0.417932 1007.05 
674 1 193.181 8.20687 2.57725 1016.75 
675 1 196.281 5.67447 2.0318 998.425 
676 1 196.619 8.58862 -0.292625 999.741 
677 2 196.706 8.41314 2.78032 1024.87 
678 2 196.389 5.01647 -0.573128 1018.35 
679 2 193.133 8.1943 -0.14168 1038.47 
680 2 193.566 5.36949 2.30053 997.22 
681 1 199.466 5.38812 -0.745834 983.709 
682 1 199.324 8.1759 2.96245 998.809 
683 1 201.915 5.71847 2.3706 1002.76 
684 1 201.975 8.85373 -1.22433 1032.29 
685 2 201.806 8.36109 2.56834 997.809 
686 2 202.346 5.09239 -0.594349 1016.48 
687 2 199.012 8.53677 -1.30765 1035.63 
688 2 199.214 5.69128 2.4197 1017.51 
689 1 204.489 5.52504 -0.878592 1001.52 
690 1 204.766 7.9895 2.07001 1009.91 
691 1 207.514 5.13061 2.17628 993.106 
692 1 207.582 8.28111 -0.352723 995.568 
693 2 207.702 8.15239 2.22258 990.332 
694 2 207.363 4.88569 -0.816383 993.43 
695 2 204.642 8.45183 -0.65205 1013.52 
696 2 204.42 5.19631 1.92446 1010.18 
697 1 210.404 5.18512 -0.783358 1008.24 
698 1 210.138 7.92712 2.42257 1005.01 
699 1 212.972 4.94393 1.50796 984.599 
700 1 213.431 7.80671 -0.859295 984.894 
701 2 213.26 7.90773 1.98259 1001.31 
702 2 213.457 4.98097 -1.10546 983.17 
703 2 210.248 8.07216 -0.729211 996.162 
704 2 210.248 5.14549 1.95233 1012.87 
705 1 216.165 5.28462 -0.381557 979.511 
706 1 216.139 8.41329 2.06403 997.634 
707 1 219.039 5.4016 2.66754 1000.3 
708 1 219.049 7.94553 -0.274451 980.641 
709 2 218.657 8.53172 2.49501 1009.33 
710 2 219.237 5.45038 0.0745227 984.071 
711 2 216.437 8.17686 -0.913316 982.446 
712 2 216.357 5.1176 2.71703 983.568 
713 1 222.067 5.1463 -0.554482 977.298 
714 1 221.788 8.35763 1.79001 982.908 
715 1 224.834 5.35503 2.41851 970.79 
716 1 225.436 7.93988 -1.04679 981.006 
717 2 225.359 7.97878 2.14776 976.807 
718 2 224.807 5.00488 -0.895916 994.781 
719 2 222.297 7.87436 -0.583599 994.969 
720 2 221.997 5.34296 2.44413 986.405 
721 1 227.287 4.65725 -0.596353 969.526 
722 1 228.007 8.22396 2.15126 971.359 
723 1 230.527 4.74884 1.82658 964.194 
724 1 230.544 8.30742 -1.1533 968.664 
725 2 230.6 7.99527 1.83353 948.298 
726 2 230.526 4.28333 -1.33505 954.953 
727 2 227.921 8.10026 -1.5671 984.829 
728 2 228.142 5.41909 2.25747 971.993 
729 1 233.355 4.23977 -1.2789 947.206 