ITEM: TIMESTEP
9000000
ITEM: NUMBER OF ATOMS
8400
ITEM: BOX BOUNDS pp pp pp
-5.9099547646241319e+00 2.8359995476463484e+02
-2.1446273254920634e+00 4.0174627325491812e+01
-1.7757301867509554e+00 1.6325730186751606e+01
ITEM: ATOMS id type x y z f_TolTpA 
1 1 -3.87626 -1.30118 -0.146175 894.317 
2 1 -3.58399 2.40093 2.51995 907.788 
3 1 -1.17823 -0.917804 2.2617 908.82 
4 1 -1.05098 2.22821 -0.835623 910.135 
5 2 -1.16501 2.14978 2.60514 909.465 
6 2 -0.835069 -1.07541 -0.576556 911.808 
7 2 -4.05932 1.98488 -0.402306 903.839 
8 2 -4.06698 -0.666518 2.30786 898.895 
9 1 1.66087 -0.887673 -0.0288563 903.029 
10 1 1.85275 2.3723 2.47782 907.505 
11 1 4.33337 -0.570059 2.34772 928.15 
12 1 5.09049 2.08074 -0.82972 896.334 
13 2 4.93225 2.38019 1.8845 893.722 
14 2 4.93261 -0.621146 -0.789794 894.969 
15 2 2.08968 1.9956 -0.0683036 914.268 
16 2 1.49408 -0.695971 2.59935 903.466 
17 1 7.50659 -0.79215 -0.603193 899.718 
18 1 7.87998 2.06336 2.46255 917.149 
19 1 10.4441 -0.645652 2.22906 926.541 
20 1 10.4262 2.88649 -0.541805 912.701 
21 2 10.6814 2.32938 3.28103 924.019 
22 2 10.5388 -0.583648 -0.975152 928.225 
23 2 7.92829 2.67908 -0.91483 895.543 
24 2 8.0207 -0.660298 1.86002 922.865 
25 1 12.9315 -1.21681 -0.766213 916.339 
26 1 13.1644 1.66808 2.69232 932.289 
27 1 15.9076 -1.59624 2.15359 928.942 
28 1 15.4961 2.04783 -0.981407 904.793 
29 2 15.876 1.66928 2.47969 948.067 
30 2 15.8474 -1.14593 -0.512131 946.962 
31 2 13.0824 1.53505 -0.161803 913.287 
32 2 13.0511 -1.17543 2.45983 931.649 
33 1 18.6182 -0.628012 -0.824806 926.996 
34 1 19.1013 1.71054 2.45634 928.537 
35 1 21.4367 -1.49693 2.71827 952.976 
36 1 21.6052 1.28762 0.252896 929.061 
37 2 21.7652 1.81886 2.73103 937.006 
38 2 21.2548 -1.47007 -0.410848 963.341 
39 2 19.1241 2.08357 -0.445359 913.286 
40 2 19.0238 -1.06771 3.17745 946.461 
41 1 24.0121 -0.983834 -0.747301 960.057 
42 1 24.5666 1.81689 3.41256 946.452 
43 1 27.311 -0.59019 2.97444 958.193 
44 1 27.0377 2.28466 -0.585119 964.939 
45 2 27.5855 1.95243 3.12 965.452 
46 2 27.1291 -0.888254 -0.318542 949.062 
47 2 24.0864 2.47497 -0.585382 926.562 
48 2 24.5466 -0.491867 2.4373 956.228 
49 1 29.7505 -1.11596 -0.609026 963.222 
50 1 30.4036 1.97391 2.22793 945.938 
51 1 33.0906 -1.22117 2.65949 962.947 
52 1 33.6672 1.74532 -0.859676 950.447 
53 2 32.8501 2.09603 1.90413 959.747 
54 2 33.803 -0.669478 -0.303466 940.854 
55 2 29.6452 1.73904 -0.245683 944.129 
56 2 30.3901 -0.930541 2.78963 954.697 
57 1 36.3747 -1.61421 -0.514218 952.617 
58 1 35.4558 1.88009 2.31005 971.454 
59 1 38.8399 -1.18414 2.86539 942.462 
60 1 39.0712 1.82681 0.00883478 965.589 
61 2 38.9789 1.60848 2.57476 951.616 
62 2 39.0159 -1.05287 -0.825138 967.276 
63 2 36.2087 2.11929 -0.423417 952.291 
64 2 35.7559 -1.23365 2.52684 947.222 
65 1 42.0295 -0.692237 -0.627041 936.101 
66 1 41.5701 1.77721 2.97824 950.922 
67 1 45.0653 -1.40971 2.25637 981.505 
68 1 44.8061 2.29019 -0.0981623 964.585 
69 2 45.2916 2.45935 2.50862 952.39 
70 2 44.7909 -1.33962 -0.944432 979.136 
71 2 41.771 1.88167 -0.196286 948.137 
72 2 42.4255 -0.639403 2.44446 951.005 
73 1 47.7085 -1.53411 -0.712028 982.462 
74 1 47.8622 1.99176 3.27318 970.252 
75 1 50.3641 -1.04829 2.84539 960.973 
76 1 50.1718 1.61934 -0.319418 960.926 
77 2 50.2792 1.72186 2.85919 972.271 
78 2 50.4568 -1.3151 -0.628535 991.187 
79 2 47.5931 2.04933 -0.832909 960.085 
80 2 47.5367 -0.974677 2.86535 995.065 
81 1 53.2245 -1.12283 -0.438826 986.12 
82 1 53.2998 1.92547 3.13575 994.88 
83 1 55.77 -0.989491 1.93386 972.584 
84 1 55.8294 1.60902 -1.20019 979.809 
85 2 55.8489 1.73117 2.89813 981.339 
86 2 55.8204 -1.00652 -0.717727 968.353 
87 2 53.5014 1.44087 -0.433438 977.319 
88 2 53.4031 -1.17951 2.47886 990.822 
89 1 59.1704 -1.46047 -0.91542 967.987 
90 1 58.3588 2.50631 1.99269 990.962 
91 1 61.7371 -0.74103 2.0721 976.791 
92 1 61.7686 1.63416 -0.727612 978.308 
93 2 61.3355 2.20118 2.87639 986.517 
94 2 61.6023 -1.42543 -0.832379 984.964 
95 2 58.7766 1.80871 -0.460737 980.73 
96 2 59.3088 -1.45825 2.08249 967.799 
97 1 64.6726 -1.57215 -0.602174 1005.32 
98 1 64.6397 1.17048 2.24894 1011.84 
99 1 68.1318 -1.24231 2.56667 1012.38 
100 1 67.5246 1.74182 -0.85618 996.664 
101 2 67.3399 2.04318 2.63407 997.004 
102 2 67.8015 -0.950603 -0.178959 995.559 
103 2 64.2367 1.3267 0.0259025 988.041 
104 2 64.894 -1.22027 2.44759 986.055 
105 1 70.1765 -1.53889 -0.146479 1014.92 
106 1 70.5224 2.14727 2.37101 1018.41 
107 1 73.3306 -1.67929 2.13285 1007.14 
108 1 73.4389 1.8587 0.0111433 998.208 
109 2 73.5263 1.16557 2.71959 1016.12 
110 2 73.8354 -1.89168 -0.705463 1024.27 
111 2 70.3999 2.12405 -0.417677 1001.16 
112 2 70.6713 -0.745619 2.58042 1015.74 
113 1 76.1607 -0.821655 -0.751804 1006.45 
114 1 76.3213 1.99683 2.84285 1033.61 
115 1 79.2621 -1.17323 2.36704 1043.32 
116 1 78.9886 1.66766 -1.08006 1025.18 
117 2 78.6298 1.60892 2.79879 1032.49 
118 2 78.9226 -0.900191 -0.669899 1011.67 
119 2 76.0525 1.88096 -0.624516 1006.52 
120 2 76.2867 -1.37337 2.2978 1006.09 
121 1 82.048 -1.34809 -0.458979 1006.03 
122 1 81.7766 2.15601 2.15508 1015.63 
123 1 84.9473 -0.978155 2.47661 1025.9 
124 1 85.1401 2.10974 -0.566472 1019.83 
125 2 84.7694 1.61191 3.03996 1030.41 
126 2 85.0359 -0.989192 -0.339403 1026.95 
127 2 82.3619 1.93428 -0.424666 1047.74 
128 2 81.9217 -1.34652 2.56839 1021.05 
129 1 87.6747 -1.07613 -0.376579 1026.96 
130 1 87.3803 1.99901 2.98348 1021.62 
131 1 90.5996 -1.26519 2.8073 1015.05 
132 1 90.3633 1.52959 -0.193467 1014.88 
133 2 90.8157 2.20932 2.5578 1008.25 
134 2 90.4637 -1.30881 0.18117 1027.28 
135 2 87.8032 1.88376 -0.414872 1012 
136 2 87.9406 -1.78099 3.16039 1048.53 
137 1 93.4719 -1.19408 -0.368873 1027.62 
138 1 93.3897 2.26453 2.4597 1017.43 
139 1 95.7339 -1.02641 2.79418 1034.38 
140 1 96.8571 1.01615 0.0782287 1039.42 
141 2 96.413 1.10072 2.79062 1043.95 
142 2 96.703 -1.36612 -0.767351 1033.34 
143 2 93.6506 1.72013 0.033965 1029.24 
144 2 93.2891 -1.15842 3.14987 1047.81 
145 1 99.7764 -1.56986 -0.0305386 1037.68 
146 1 99.6501 1.34685 2.24152 1048.78 
147 1 102.454 -2.01459 2.64443 1039.21 
148 1 102.036 1.64269 -0.168007 1051.84 
149 2 102.386 0.990257 2.7116 1058.86 
150 2 102.46 -1.5863 -0.468262 1047.03 
151 2 99.6346 1.48459 -0.499181 1029.83 
152 2 99.1535 -1.24744 2.60188 1066.05 
153 1 105.339 -1.56082 -0.626176 1046.73 
154 1 105.052 2.07516 2.62257 1045.86 
155 1 108.277 -0.992229 1.81703 1054.64 
156 1 109.02 2.08692 -0.375244 1061.05 
157 2 108.359 1.74606 2.42304 1048.34 
158 2 108.235 -1.72287 -0.696666 1039.77 
159 2 104.911 1.68284 -0.385378 1039.86 
160 2 104.867 -1.72014 2.74838 1054.13 
161 1 111.37 -1.22154 -0.432114 1059.95 
162 1 110.913 2.30557 3.06631 1066.67 
163 1 113.396 -0.471686 2.60895 1090.22 
164 1 114.192 1.67709 -0.115928 1041.76 
165 2 113.834 2.07243 2.6225 1080.01 
166 2 113.918 -1.19401 0.421132 1051.92 
167 2 111.305 1.71385 -0.564096 1052.9 
168 2 110.999 -1.38008 3.20374 1058.3 
169 1 116.821 -1.38038 0.0649429 1054.12 
170 1 116.522 1.96427 3.08725 1078.83 
171 1 119.684 -0.910803 2.69394 1071.91 
172 1 119.504 1.65513 -0.384304 1060.88 
173 2 119.562 1.50708 2.75655 1075.44 
174 2 119.409 -0.964439 -0.565613 1072.14 
175 2 116.916 1.23683 -0.510754 1056.29 
176 2 116.82 -0.825556 3.06713 1052.62 
177 1 122.218 -0.841839 -0.52221 1074.31 
178 1 123.118 1.58602 2.31065 1046.67 
179 1 125.517 -1.70387 2.2211 1073.74 
180 1 125.858 1.68548 -0.412312 1056.3 
181 2 125.691 1.78124 2.00125 1098.76 
182 2 126.299 -0.85097 -0.801301 1073.12 
183 2 122.877 1.54043 -0.56979 1085.87 
184 2 123.084 -1.29073 1.95344 1061.62 
185 1 128.837 -1.65878 -1.02326 1088.67 
186 1 128.686 1.32195 1.92829 1082.17 
187 1 132.297 -0.666567 1.33498 1082.95 
188 1 131.747 1.72776 -1.0464 1082.01 
189 2 132.112 1.82043 2.29876 1061.78 
190 2 131.828 -1.36714 -1.0816 1079.59 
191 2 128.754 1.63401 -0.668454 1078.1 
192 2 128.765 -1.12055 2.21979 1059.58 
193 1 134.828 -1.51021 -0.860812 1083.08 
194 1 134.926 1.63627 1.98987 1074.92 
195 1 137.422 -1.93373 2.61143 1095.83 
196 1 137.504 1.86018 -0.633505 1115.04 
197 2 137.471 0.868422 2.47306 1111.79 
198 2 137.795 40.0702 -1.08163 1083.59 
199 2 134.822 1.41676 -0.813932 1108.75 
200 2 134.738 -1.86851 1.6753 1083.52 
201 1 140.723 -1.86381 -0.646039 1110.64 
202 1 140.2 0.899173 2.07721 1112.33 
203 1 143.591 -1.337 2.24397 1110.85 
204 1 143.459 0.798427 -0.964197 1115.07 
205 2 143.365 1.17363 2.40775 1108.44 
206 2 143.793 -1.84549 -0.28696 1119.1 
207 2 140.412 1.45583 -0.912608 1115.23 
208 2 140.654 -1.95381 2.09526 1102.36 
209 1 146.664 -1.82949 -0.45074 1079.74 
210 1 146.224 1.77849 3.05504 1112.62 
211 1 149.556 40.0362 3.11847 1104.78 
212 1 149.055 1.0017 -0.495416 1087.65 
213 2 148.942 1.44401 2.57892 1102.8 
214 2 149.18 -1.98309 -0.14571 1105 
215 2 146.038 1.52771 -1.08429 1105.88 
216 2 146.125 40.0303 2.6763 1102.92 
217 1 152.306 40.123 -0.0201814 1096.75 
218 1 151.946 0.771469 2.28115 1065.43 
219 1 155.461 39.5948 2.30447 1081.55 
220 1 155.57 0.826773 -0.402214 1086.12 
221 2 154.731 1.48161 2.91707 1083.84 
222 2 155.097 -2.14243 -0.712762 1071.7 
223 2 151.623 1.15107 -0.389374 1070.54 
224 2 152.048 -1.67995 2.55979 1100.77 
225 1 158.213 40.0642 -0.519847 1069.73 
226 1 157.848 1.26636 2.87298 1083.96 
227 1 160.959 -1.86388 1.94915 1077.85 
228 1 160.957 1.44928 -0.303238 1075.94 
229 2 160.581 1.4225 2.51209 1073.58 
230 2 161.065 40.1036 -0.604013 1057.17 
231 2 158.018 0.798598 -0.216244 1090.27 
232 2 158.005 39.9693 2.08031 1092.15 
233 1 163.861 -1.8509 -0.660386 1069.96 
234 1 163.834 0.711509 2.11609 1067.48 
235 1 166.313 -1.65688 2.73702 1058.69 
236 1 166.383 1.61803 -0.171852 1031.37 
237 2 166.486 1.25004 2.50873 1047.41 
238 2 166.577 -1.21324 -0.905729 1066.39 
239 2 163.269 0.557692 -0.450155 1064.15 
240 2 164.007 40.0203 2.38969 1075.88 
241 1 169.85 -1.44359 -0.44281 1047.17 
242 1 169.011 1.0468 2.07457 1052.88 
243 1 173.063 39.8459 2.64194 1072.67 
244 1 173.054 1.41324 -0.822287 1057.46 
245 2 172.807 0.91571 1.95175 1031.92 
246 2 172.547 -1.47997 -0.730121 1063.81 
247 2 169.734 1.34831 -0.738238 1045.29 
248 2 168.941 -1.56877 2.14677 1063.92 
249 1 175.011 -1.26888 -0.455481 1044.46 
250 1 175.658 1.3243 2.43093 1033.27 
251 1 178.364 40.0807 2.984 1043.42 
252 1 178.69 1.24156 -0.638889 1031.53 
253 2 178.284 1.09739 2.45168 1047.72 
254 2 178.468 40.1543 -0.177802 1046.34 
255 2 175.725 1.44935 -0.727872 1029.32 
256 2 175.644 40.1669 2.44518 1045.45 
257 1 180.994 -1.54633 -0.414237 1033.49 
258 1 181.148 1.24268 2.07716 1045.47 
259 1 184.012 -1.83488 2.55609 1045.45 
260 1 184.402 1.36651 -0.135451 1053.8 
261 2 184.426 1.11348 2.55043 1045.58 
262 2 184.125 -1.9555 -0.287191 1053.68 
263 2 181.359 1.5288 -0.287438 1047.51 
264 2 180.992 -1.77176 2.44717 1043.15 
265 1 187.613 -1.76249 -0.8088 1049.83 
266 1 186.903 1.10598 2.50193 1052.93 
267 1 189.728 40.0731 2.49973 1048.68 
268 1 189.832 1.09777 -1.00038 1057.66 
269 2 190.233 0.842639 2.20345 1038.84 
270 2 190.162 -1.68664 -0.764979 1054.68 
271 2 187.114 0.743592 -0.968005 1057.38 
272 2 187.076 -1.46489 2.07053 1034.85 
273 1 192.618 -1.4764 -1.04264 1020.33 
274 1 192.975 1.44301 2.38923 1025.04 
275 1 195.926 -1.99317 2.83983 1009.47 
276 1 195.519 2.00177 -0.926646 1017.45 
277 2 195.888 1.44927 2.12423 1027.48 
278 2 195.257 -1.78429 -0.798857 1025.93 
279 2 192.77 1.59788 -1.0795 1035.28 
280 2 193.254 -1.76254 3.14174 1008.52 
281 1 198.301 -1.73098 -0.42452 1035.93 
282 1 198.462 1.39743 2.24481 1007.73 
283 1 201.766 -1.47312 2.05824 1003.36 
284 1 201.691 1.77107 -0.834834 1013.74 
285 2 202.008 1.01307 2.02543 1020.55 
286 2 201.593 -1.78087 -1.02983 1004.5 
287 2 198.993 1.60599 -1.1304 986.457 
288 2 198.572 -1.51207 1.96204 1029.5 
289 1 204.053 -1.86978 -0.575626 1005.59 
290 1 204.673 0.951248 2.03233 1000.97 
291 1 207.609 -2.11589 1.99298 989.002 
292 1 208.407 1.56928 -0.0361505 988.637 
293 2 208.414 0.14729 1.9757 1002.28 
294 2 207.365 39.6575 -0.575554 990.286 
295 2 205.413 1.20906 -0.624893 1020.83 
296 2 204.418 -1.72978 1.98258 1006.17 
297 1 211.156 40.0227 -0.16362 987.923 
298 1 210.943 0.446861 1.89617 990.913 
299 1 213.584 -1.52149 2.66815 1002.13 
300 1 213.855 1.24459 -1.05102 993.322 
301 2 213.245 0.787969 2.72884 997.07 
302 2 213.95 -1.9098 -0.308874 1008.55 
303 2 211.121 0.694381 -0.916834 1011.7 
304 2 210.922 39.86 2.10812 1008.66 
305 1 216.284 39.9614 -0.173203 989.997 
306 1 216.387 0.994828 2.56421 974.41 
307 1 219.401 -1.38446 2.22933 1005.07 
308 1 219.576 1.43 -1.0729 993.887 
309 2 219.786 1.91021 1.9488 989.584 
310 2 219.195 -1.00754 -0.150213 1003.58 
311 2 216.536 1.61855 -0.897777 1005.35 
312 2 216.282 -1.57853 2.49057 987.868 
313 1 222.252 -1.46577 -0.725653 971.64 
314 1 222.41 1.62486 2.21959 967.508 
315 1 225.196 -1.84812 2.40676 989.882 
316 1 225.235 1.80336 -0.906463 968.766 
317 2 225.05 1.91626 2.64415 985.543 
318 2 224.751 -2.04563 -0.48492 992.635 
319 2 222.25 1.26522 -0.839693 967.923 
320 2 222.73 -1.86007 2.86802 974.236 
321 1 227.666 -1.61554 -0.652677 980.935 
322 1 227.865 1.44521 2.12696 978.727 
323 1 230.168 -1.18572 2.81695 979.652 
324 1 231.067 1.38675 -0.504459 978.007 
325 2 230.521 1.18245 2.54904 961.41 
326 2 231.082 -1.81832 -0.353957 981.498 
327 2 227.996 1.44376 -0.587984 988.365 
328 2 227.643 -1.89114 1.85294 979.961 
329 1 233.734 -1.52491 -0.401066 982.888 
330 1 233.474 1.41011 2.30787 979.664 
331 1 236.793 -1.50853 2.67527 962.022 
332 1 236.771 1.57606 -0.409663 962.419 
333 2 235.936 1.63732 2.32916 982.282 
334 2 236.39 -1.97357 -0.303825 958.285 
335 2 233.552 1.43417 -0.297252 978.073 
336 2 234.114 -1.80117 2.81812 989.978 
337 1 239.231 -1.77465 -0.138754 955.279 
338 1 239.449 1.75427 2.32794 967.044 
339 1 243.119 -1.36265 2.70998 968.333 
340 1 242.317 1.51662 -0.554719 941.235 
341 2 242.919 1.61747 2.43704 972.055 
342 2 242.413 -1.39979 0.196384 969.21 
343 2 239.512 1.55112 -0.39351 966.798 
344 2 239.474 -1.7673 2.85957 962.258 
345 1 244.989 -1.34476 -0.536065 956.743 
346 1 245.595 1.47963 2.55587 941.174 
347 1 247.9 -1.55915 2.97604 972.53 
348 1 248.602 0.602134 -0.259498 929.326 
349 2 248.663 1.29172 3.04355 956.888 
350 2 247.993 -1.8351 -0.266745 966.793 
351 2 245.749 1.62903 -0.421244 957.007 
352 2 245.531 -1.16027 3.28706 954.156 
353 1 251.611 -1.28518 -0.320843 941.358 
354 1 251.427 1.65888 2.71169 926.187 
355 1 253.971 -1.19435 3.20576 964.655 
356 1 253.994 1.2242 -0.739169 946.507 
357 2 254.553 1.2499 2.90487 950.042 
358 2 254.244 -1.71608 -0.193845 953.916 
359 2 251.268 1.00562 -0.0550341 937.875 
360 2 251.275 -1.91333 2.77056 945.342 
361 1 256.688 -2.02133 0.0421194 943.487 
362 1 256.828 2.0294 2.56687 948.675 
363 1 259.849 -1.60703 2.23169 932.856 
364 1 259.793 1.9343 -0.156731 946.014 
365 2 259.35 2.01261 2.28555 939.658 
366 2 259.305 -1.79655 -0.165416 944.001 
367 2 256.691 1.32367 -0.595039 943.493 
368 2 256.696 -1.72658 2.57093 942.325 
369 1 262.734 -1.0715 -0.323403 974.133 
370 1 262.202 1.75576 2.6569 919.001 
371 1 265.354 -1.13225 2.03413 924.075 
372 1 265.307 2.16358 -0.685334 914.156 
373 2 265.752 1.78928 2.11852 930.783 
374 2 265.494 -0.734868 -0.677631 920.784 
375 2 262.502 1.61259 -0.112032 932.248 
376 2 262.442 -1.42234 2.2099 934.087 
377 1 268.11 -0.912024 -0.651565 931.681 
378 1 268.432 1.63346 2.84174 912.75 
379 1 271.158 -0.688294 2.88233 932.656 
380 1 271.087 1.77589 -0.708751 931.886 
381 2 271.109 1.83001 2.96925 929.938 
382 2 271.074 -0.936974 -0.823752 928.019 
383 2 268.43 2.10164 -0.906009 942.849 
384 2 268.529 -1.12923 2.51442 924.351 
385 1 273.654 -1.20793 -0.425742 930.251 
386 1 273.634 2.16363 2.81941 931.27 
387 1 276.302 -0.745767 2.64112 921.288 
388 1 276.57 2.32442 0.362054 947.14 
389 2 276.686 2.24073 3.02056 923.079 
390 2 276.851 -0.643241 0.0762145 928.413 
391 2 273.526 2.36157 -0.034374 936.054 
392 2 273.913 -0.923192 2.19586 949.47 
393 1 279.672 -0.512213 0.0980983 900.12 
394 1 279.593 2.27287 2.49325 901.246 
395 1 282.883 -0.364126 2.45529 911.783 
396 1 282.406 1.82697 -0.794824 917.727 
397 2 282.626 1.94791 2.15466 906.819 
398 2 282.27 -0.925916 -0.363218 923.793 
399 2 279.139 2.21118 -0.510795 922.66 
400 2 279.76 -0.588732 2.45337 929.111 
401 1 -4.54141 4.91106 -0.951257 899.48 
402 1 -4.03102 8.50552 2.18207 894.781 
403 1 -0.927909 5.0604 2.19824 906.205 
404 1 -1.01587 7.94422 -0.69228 903.089 
405 2 -1.1482 8.76904 2.26291 906.352 
406 2 -0.55002 4.9399 -0.615443 896.362 
407 2 -4.05637 8.01909 -0.789246 892.238 
408 2 -3.70647 5.12389 2.19301 891.135 
409 1 2.43885 5.67535 -0.374039 906.922 
410 1 1.57318 8.31596 2.7738 908.662 
411 1 4.88219 5.14241 2.39343 923.798 
412 1 4.81311 8.32117 -0.91679 913.735 
413 2 4.46548 8.05314 2.57245 908.502 
414 2 4.81461 5.05123 -0.671779 922.702 
415 2 1.75895 8.23755 -0.441205 911.267 
416 2 1.93938 5.33575 2.42317 896.715 
417 1 7.20914 5.46413 -1.00054 926.874 
418 1 7.10637 8.12683 2.09618 925.113 
419 1 10.4037 5.27555 2.66052 930.713 
420 1 10.6139 8.21496 -0.13894 928.845 
421 2 10.521 8.28119 2.72401 937.58 
422 2 10.5488 5.42469 -0.617739 921.046 
423 2 7.38141 8.06057 -0.472855 934.976 
424 2 7.85524 4.6578 2.46704 941.72 
425 1 13.4758 5.53715 -0.0144258 932.746 
426 1 13.2939 8.23132 2.95441 934.034 
427 1 16.0278 4.25165 2.68229 935.525 
428 1 15.851 7.93391 -0.707529 943.686 
429 2 15.8572 7.95782 1.98951 921.496 
430 2 16.1074 4.61948 -0.412214 924.342 
431 2 13.3497 8.15631 -0.327407 959.354 
432 2 13.096 5.30962 2.67977 936.989 
433 1 18.4325 4.48892 -1.0299 938.821 
434 1 19.0072 7.39643 1.51529 931.742 
435 1 21.9531 4.86567 1.87592 938.122 
436 1 21.3633 8.20137 -0.624118 918.851 
437 2 21.5055 7.77348 2.41152 943.065 
438 2 21.6035 5.69815 -0.68811 941.934 
439 2 18.7099 8.68264 -1.04786 931.412 
440 2 18.7595 4.80209 2.72921 934.351 
441 1 24.1781 5.32485 -1.04865 939.458 
442 1 24.922 7.85019 1.87447 937.296 
443 1 27.5553 4.93451 2.07062 951.735 
444 1 27.7624 7.84773 -1.00336 941.684 
445 2 27.4648 8.21572 1.47238 950.358 
446 2 27.3677 5.02517 -0.948648 937.927 
447 2 24.1681 7.76494 -0.489631 954.109 
448 2 24.3385 4.71477 2.42441 926.549 
449 1 29.9212 4.69585 -0.494359 953.394 
450 1 30.065 7.47054 1.74224 967.395 
451 1 33.483 5.14729 2.41455 943.664 
452 1 33.1284 7.9152 -0.326564 964.138 
453 2 32.7749 7.81014 2.2667 940.721 
454 2 33.0059 4.68825 -0.423633 965.356 
455 2 30.2487 7.47235 -0.986774 952.261 
456 2 29.9802 4.52154 2.66262 963.664 
457 1 36.3238 4.96131 0.482634 969.872 
458 1 36.5175 8.21289 2.57986 948.727 
459 1 38.8701 5.04297 3.28102 958.974 
460 1 39.1869 7.30961 -0.382892 958.927 
461 2 39.1848 7.62762 2.85848 953.969 
462 2 38.6951 4.76513 -0.171137 961.091 
463 2 36.1672 7.52906 -0.00543173 954.642 
464 2 36.1943 5.15015 3.16382 950.262 
465 1 42.2283 4.76763 -0.163413 957.37 
466 1 42.0047 7.70005 2.54904 958.891 
467 1 44.8244 4.80071 2.59857 974.593 
468 1 44.6061 7.91787 -0.442924 960.371 
469 2 44.4616 8.05088 2.45471 980.368 
470 2 44.5917 4.67752 -0.219387 971.31 
471 2 41.9717 7.50947 -0.507748 966.512 
472 2 42.2017 4.97764 2.80495 959.142 
473 1 47.3452 4.81878 -0.587831 974.568 
474 1 47.5852 8.38143 2.9464 989.597 
475 1 50.0492 4.8941 2.59168 968.96 
476 1 50.27 8.03891 -0.347762 974.311 
477 2 50.2168 7.90628 2.61528 975.619 
478 2 49.7085 4.88736 -0.114751 975.019 
479 2 47.3345 7.98227 -0.25591 979.508 
480 2 47.4117 5.12851 3.17689 960.647 
481 1 53.0843 4.76727 -0.288196 985.908 
482 1 53.4608 8.41838 1.96227 985.936 
483 1 55.9485 4.6781 2.36059 1003.12 
484 1 56.5958 7.83273 -0.564642 973.896 
485 2 56.173 8.32127 2.1344 981.895 
486 2 56.128 4.88352 -0.431563 974.01 
487 2 53.2593 7.93486 -0.45006 977.565 
488 2 53.1829 4.8451 2.4554 1012.88 
489 1 58.8279 4.62731 -0.891584 976.864 
490 1 59.1169 7.89556 1.91978 991.065 
491 1 61.963 5.07027 2.07406 977.961 
492 1 61.898 8.29156 -0.962893 974.38 
493 2 61.8901 8.14319 1.96709 959.037 
494 2 61.6728 4.67884 -0.528029 980.246 
495 2 59.1262 8.19592 -0.420343 987.227 
496 2 58.4095 5.04835 2.00434 973.43 
497 1 64.532 4.84985 -0.776636 974.529 
498 1 64.4745 8.26514 2.34885 1005.2 
499 1 67.1357 4.91353 2.4232 1016.86 
500 1 67.7158 7.85605 -0.848348 991.564 
501 2 67.8348 8.02792 2.54183 1005.35 
502 2 67.1438 5.05574 -0.81325 1014.04 
503 2 64.5896 7.90628 -0.441511 976.918 
504 2 64.8164 4.94653 2.28008 996.33 
505 1 70.3542 5.16489 -0.339739 1014.08 
506 1 70.4886 8.36665 2.86568 1010.26 
507 1 73.47 5.08909 2.5155 1004.88 
508 1 73.4218 7.38752 -0.550438 1002.4 
509 2 73.2123 8.23558 2.32187 1009.49 
510 2 73.5121 4.81525 -0.398693 1021.02 
511 2 70.6777 7.85058 -0.899806 992.664 
512 2 70.3363 4.97512 2.04282 997.969 
513 1 76.1741 4.65563 -0.652472 1005.07 
514 1 76.6963 7.94395 2.39949 1000.16 
515 1 78.8751 4.05972 2.08505 1003.7 
516 1 79.0032 7.66269 -0.43727 1003.56 
517 2 79.2859 7.51467 2.20951 1015.8 
518 2 78.9484 4.11632 -0.305611 1012.62 
519 2 76.4186 7.93351 -0.475055 1001.88 
520 2 75.8243 4.78006 2.46462 981.964 
521 1 82.2313 4.54825 -0.586937 1036.63 
522 1 82.4208 7.95569 2.04524 1031.16 
523 1 85.0997 4.92449 2.62845 1025.29 
524 1 85.0307 7.75831 -1.1429 1013.12 
525 2 85.064 8.05486 2.7383 1041.23 
526 2 85.1374 5.22192 -0.533685 1045.56 
527 2 82.2429 7.65959 -0.879124 1015.35 
528 2 82.4814 4.43711 2.22049 1020.75 
529 1 88.2014 4.91126 -0.17191 1051.8 
530 1 87.8392 8.24055 2.40968 1032.72 
531 1 90.9322 5.16659 2.72833 1025.34 
532 1 91.1051 7.89532 -0.585168 1023.03 
533 2 90.793 8.1443 2.26345 1011.42 
534 2 90.8308 4.81614 -0.570271 1037.36 
535 2 87.9285 7.84753 -0.221196 1034.31 
536 2 88.006 4.76993 2.72661 1018.88 
537 1 93.3409 4.31039 0.00854688 1031.39 
538 1 93.413 8.21714 2.80294 1034.6 
539 1 96.7604 4.40388 3.15365 1027.57 
540 1 96.6456 7.47971 -0.26031 1030.83 
541 2 97.3138 7.24613 2.24462 1044.39 
542 2 96.5873 3.88754 -0.644235 1022.12 
543 2 93.9543 7.4555 0.253403 1027.42 
544 2 93.9058 4.83481 3.16207 1023.05 
545 1 99.1434 4.49652 -0.404807 1028.64 
546 1 99.6281 7.99202 3.0335 1030.5 
547 1 101.932 4.30832 2.44822 1026.05 
548 1 101.672 7.72264 -0.625327 1038.17 
549 2 101.947 7.51496 2.59078 1046.79 
550 2 101.928 4.4505 -0.563409 1039.07 
551 2 99.3605 7.52993 -0.764751 1014.91 
552 2 99.1383 3.69119 2.35448 1032.84 
553 1 104.879 4.58304 -0.513815 1014.31 
554 1 104.936 7.56665 2.03884 1022.46 
555 1 108.133 4.61876 3.23246 1032.85 
556 1 108.272 7.44938 -0.591856 1057.52 
557 2 107.984 7.37003 2.04514 1044.07 
558 2 108.678 4.67595 -0.912185 1054.52 
559 2 104.673 7.34707 -0.527619 1032.6 
560 2 105.446 4.43452 2.48613 1048.34 
561 1 111.313 5.07186 -0.551744 1056.97 
562 1 110.72 8.03751 2.77651 1056.02 
563 1 113.728 5.0358 2.96887 1051.83 
564 1 113.771 8.16617 -0.227285 1065.31 
565 2 113.944 7.96388 2.62764 1053.41 
566 2 113.722 4.42009 -0.638284 1085.78 
567 2 110.903 7.6382 -0.165785 1066.75 
568 2 110.846 5.01725 2.83308 1038.23 
569 1 116.041 4.67047 0.0861958 1073.35 
570 1 116.64 7.8169 2.63271 1051.7 
571 1 119.938 4.04067 2.61877 1072.97 
572 1 119.727 7.35191 -0.302344 1057.66 
573 2 119.209 7.51569 2.21762 1044.27 
574 2 119.756 4.27883 -0.0681029 1066.94 
575 2 116.709 7.61529 -0.616318 1067.02 
576 2 116.19 4.90157 2.63193 1087.53 
577 1 122.587 4.57066 -0.58775 1080.3 
578 1 122.918 7.46769 2.87158 1064.95 
579 1 126.148 4.96147 2.10984 1079.95 
580 1 125.731 7.14149 -0.582092 1084.33 
581 2 125.645 7.40852 2.36229 1063.73 
582 2 125.552 4.66418 -0.7268 1084.4 
583 2 122.729 7.33469 -0.677386 1073.55 
584 2 122.479 4.69752 2.19596 1084.37 
585 1 128.694 4.45498 -1.17708 1070.27 
586 1 127.959 7.91091 2.97267 1089.84 
587 1 131.618 4.85484 2.44466 1081.43 
588 1 131.609 7.48232 -0.446129 1088.38 
589 2 131.871 7.53102 2.33089 1098.79 
590 2 131.621 4.46717 -0.897784 1086.21 
591 2 129.176 6.7759 -0.458903 1079.12 
592 2 128.736 4.4229 2.94834 1074.51 
593 1 134.464 4.39342 -0.720955 1113.78 
594 1 134.825 7.55291 2.16173 1082.01 
595 1 138.239 4.8943 2.89358 1102.44 
596 1 137.394 7.50464 -0.779538 1078.52 
597 2 138.034 7.91609 3.04663 1101.08 
598 2 137.843 4.53867 -0.123728 1090.39 
599 2 134.856 7.11929 -0.557665 1078.59 
600 2 134.798 4.60391 2.33747 1090.57 
601 1 140.836 4.37702 -0.575895 1111.03 
602 1 140.659 7.42849 2.81762 1107.46 
603 1 143.284 4.19833 3.19536 1090.9 
604 1 143.483 6.24567 0.069576 1084.44 
605 2 143.304 7.1278 2.49891 1093.05 
606 2 143.457 4.07813 -0.636859 1111.34 
607 2 140.548 7.41699 -0.804955 1086.01 
608 2 140.568 4.1688 3.21346 1083.46 
609 1 145.917 1.18299 14.2722 1101.61 
610 1 145.855 4.40264 -1.13871 1083.15 
611 1 149.447 4.20561 2.31992 1101.31 
612 1 149.144 7.64271 0.102502 1084.36 
613 2 149.005 7.32231 3.29216 1098.5 
614 2 149.366 4.51812 -0.846571 1087.29 
615 2 146.542 6.94112 -0.443954 1099.34 
616 2 145.883 4.33015 3.57127 1110.8 
617 1 152.078 4.27676 -0.506532 1093.22 
618 1 151.737 7.23549 2.65552 1062.52 
619 1 155.052 4.36899 2.42361 1106.25 
620 1 155.183 6.91587 -0.508091 1078.76 
621 2 154.527 7.68353 2.14574 1077.72 
622 2 155.056 3.84947 -0.714554 1085.43 
623 2 152.191 7.38545 -0.514267 1088.11 
624 2 151.873 4.26962 2.68571 1061.66 
625 1 157.917 4.95918 -0.353039 1080.43 
626 1 157.393 7.65059 2.81246 1081.44 
627 1 160.745 4.63068 2.38953 1084.85 
628 1 160.886 8.17411 -0.644019 1056.55 
629 2 161.062 7.13468 2.49037 1063.44 
630 2 160.681 4.03096 -0.572987 1085.58 
631 2 157.847 7.63349 -0.183273 1047.22 
632 2 157.497 5.00305 3.12656 1058 
633 1 163.867 4.59404 -0.320683 1074.75 
634 1 163.58 7.24554 2.50962 1072.2 
635 1 166.562 4.44194 2.37541 1075.89 
636 1 166.135 7.29163 -0.445834 1048.37 
637 2 166.723 7.46491 2.49051 1061.29 
638 2 166.188 4.29837 -0.195174 1049.35 
639 2 163.884 7.61209 -0.147053 1055.05 
640 2 163.967 3.90238 2.32499 1075.46 
641 1 169.829 4.61409 -0.553461 1058.45 
642 1 169.555 7.84851 2.3077 1047.82 
643 1 172.26 4.94747 2.21405 1058.84 
644 1 173.227 7.75442 -0.481412 1046.11 
645 2 172.516 7.63874 2.17975 1028.18 
646 2 172.917 4.71118 -0.444548 1025.89 
647 2 169.509 7.704 -0.440864 1047.85 
648 2 169.571 5.04437 2.41393 1061.04 
649 1 175.368 4.64731 0.124119 1037.91 
650 1 175.703 7.45793 2.97427 1063.52 
651 1 178.668 4.66754 2.42209 1023.1 
652 1 178.805 7.38486 -0.356332 1026.7 
653 2 178.819 7.58252 2.68576 1043.96 
654 2 178.451 3.96247 -0.369977 1020.64 
655 2 175.384 7.45136 0.0769719 1047.64 
656 2 175.358 4.94236 2.70328 1049.45 
657 1 181.016 4.13641 -0.510559 1028.55 
658 1 181.534 7.41089 2.63962 1036.5 
659 1 184.05 4.42061 2.53115 1032.82 
660 1 184.367 6.53715 -0.365715 1034.36 
661 2 184.399 7.29218 2.46247 1042.46 
662 2 184.786 4.15882 -0.287892 1045.93 
663 2 181.336 6.98518 -0.503695 1057.17 
664 2 181.417 3.98654 2.3063 1031.28 
665 1 187.265 4.82878 0.123793 1046.31 
666 1 187.81 7.97898 2.09158 1033.15 
667 1 189.976 4.01827 2.56134 1033.16 
668 1 190.462 7.69829 -0.854077 1037.76 
669 2 190.287 7.58355 1.8761 1049.77 
670 2 189.8 4.20011 -0.823363 1024.5 
671 2 187.011 7.54534 -0.297789 1043.44 
672 2 187.422 3.80501 2.74755 1048.48 
673 1 192.325 4.56718 -0.137562 1021.69 
674 1 192.892 7.56317 2.58589 1027.9 
675 1 196.34 4.29811 1.72522 1032.71 
676 1 195.965 7.77426 -0.561575 1037.86 
677 2 196.02 6.83754 2.66211 1036.25 
678 2 196.238 4.757 -0.756702 1021.5 
679 2 193.08 7.62968 -0.726024 1042.55 
680 2 192.715 4.15416 2.37172 1019 
681 1 199.267 4.07826 -0.537054 1010.76 
682 1 198.785 7.2977 2.29997 1009.53 
683 1 201.958 4.11399 1.89016 1028.57 
684 1 201.647 7.36545 -0.48274 1019.44 
685 2 201.579 7.18151 2.5177 1019.35 
686 2 202.143 4.33679 -0.878342 1012.25 
687 2 198.504 7.37295 -0.469435 1021.23 
688 2 199.235 4.10371 2.03362 1021.56 
689 1 204.793 3.81915 -1.36754 1004.28 
690 1 204.375 6.95977 2.47444 1003.95 
691 1 207.126 3.96661 2.42861 1002.64 
692 1 207.68 6.98094 -0.10723 1009.67 
693 2 207.838 6.80781 3.01854 1002.82 
694 2 207.896 4.08973 -0.11253 1001.29 
695 2 205.118 7.44276 -0.00843841 1000.5 
696 2 204.642 4.20984 2.21612 1015.74 
697 1 210.873 4.2792 -0.677565 1002.81 
698 1 210.872 6.61628 2.45901 983.395 
699 1 213.917 3.3304 1.99871 992.606 
700 1 213.998 6.99004 -1.4864 983.104 
701 2 213.373 7.05936 2.65666 999.58 
702 2 213.839 3.98299 -0.801552 994.521 
703 2 210.655 6.79539 -0.535988 1024.89 
704 2 210.656 3.84263 2.39886 987.254 
705 1 216.48 4.33906 -0.79304 994.27 
706 1 216.533 6.91403 2.62549 987.803 
707 1 219.219 4.44606 1.92783 982.454 
708 1 219.552 7.72216 -0.843243 971.47 
709 2 219.635 6.97382 2.22903 991.497 
710 2 219.025 4.39712 -0.852835 971.354 
711 2 216.754 7.64525 -0.669287 975.257 
712 2 216.541 3.92154 2.26656 994.892 
713 1 222.017 4.68156 -0.839723 984.556 
714 1 221.635 8.26016 2.78093 975.176 
715 1 225.01 4.45737 2.25141 979.777 
716 1 224.688 7.80057 -0.725036 957.489 
717 2 224.687 7.83508 2.3214 971.247 
718 2 225.127 4.59594 -0.879441 988.012 
719 2 222.38 8.20272 -1.07406 981.506 
720 2 222.267 4.79767 1.65738 979.881 
721 1 227.943 4.748 -0.76878 984.801 
722 1 227.331 7.57327 2.24057 970.625 
723 1 230.63 5.05875 2.30941 983.781 
724 1 230.612 7.74761 -0.345594 972.794 
725 2 230.829 7.48909 2.59897 989.739 
726 2 230.575 4.27154 -0.565451 966.509 
727 2 227.848 7.87206 -0.402523 965.591 
728 2 228.03 4.76405 2.13323 964.266 
729 1 233.593 4.72196 -0.607762 968.744 