ITEM: TIMESTEP
5000000
ITEM: NUMBER OF ATOMS
8980
ITEM: BOX BOUNDS pp pp pp
-1.8149645705896680e-01 5.2503699457062446e+01
6.2360070798147549e-01 5.3136196292014631e+01
7.7965790955901761e+00 4.5009124904403727e+01
ITEM: ATOMS id type x y z 
1 1 1.86453 34.0626 44.1766 
2 2 52.1433 23.7455 18.4889 
3 1 40.8324 3.67025 25.14 
4 2 14.824 2.24008 13.4344 
5 2 42.6278 4.10723 20.2071 
6 1 30.5148 19.4466 12.3688 
7 3 0.571517 24.0728 18.0253 
8 3 52.1077 24.9411 18.4799 
9 3 -0.0807591 22.57 18.2087 
10 3 13.8304 1.85765 14.1901 
11 3 14.0818 1.66823 12.591 
12 3 15.261 2.61112 14.5369 
13 3 43.7604 4.55834 20.0433 
14 3 43.128 3.38018 21.0788 
15 3 42.6189 5.0489 19.2719 
16 1 47.3221 36.5635 34.5944 
17 2 32.3998 6.81193 28.5214 
18 1 23.5883 45.3152 25.8081 
19 2 40.188 45.3494 37.6998 
20 2 12.2882 12.0253 12.0908 
21 1 3.81159 22.1253 24.8552 
22 3 31.41 6.63109 29.2909 
23 3 31.4639 6.91571 27.5983 
24 3 32.9736 6.62447 29.6748 
25 3 40.2266 45.6252 36.4271 
26 3 40.3584 44.2657 37.1722 
27 3 40.0448 46.53 37.7274 
28 3 12.0969 13.0805 12.6679 
29 3 13.4178 12.5922 12.0293 
30 3 11.0901 11.9049 12.4003 
31 1 41.3566 28.7876 22.657 
32 2 38.3461 31.0908 43.3008 
33 1 28.588 38.2499 20.3363 
34 2 44.7135 51.5659 12.6781 
35 2 10.7698 26.6909 10.3601 
36 1 31.3803 17.0734 23.674 
37 3 39.0895 30.2583 43.9441 
38 3 39.5594 31.2718 42.9599 
39 3 37.4102 30.5789 43.9601 
40 3 43.8117 51.0304 13.3938 
41 3 43.6447 51.8226 11.9728 
42 3 45.2821 51.0748 13.6814 
43 3 11.8147 26.6641 11.0732 
44 3 11.4262 25.742 9.77534 
45 3 10.5799 27.5993 11.2426 
46 1 14.575 36.0188 26.2555 
47 2 34.5263 43.9318 28.773 
48 1 15.4121 9.15889 25.7816 
49 2 35.645 36.866 20.5263 
50 2 6.92179 4.51962 33.8169 
51 1 8.60433 11.5507 36.2602 
52 3 33.7881 42.9333 28.5052 
53 3 33.8089 44.3938 27.85 
54 3 34.9071 42.9911 29.5466 
55 3 34.6996 37.7339 20.7361 
56 3 35.4233 37.3621 19.3875 
57 3 35.4503 36.787 21.725 
58 3 6.12059 3.53035 33.7332 
59 3 7.5315 3.67632 33.1109 
60 3 5.936 4.97541 34.4486 
61 1 5.88921 45.3146 8.73325 
62 2 0.630482 1.80496 40.69 
63 1 33.4761 37.2145 42.3175 
64 2 28.5245 7.37924 14.1814 
65 2 3.80107 47.3374 7.93883 
66 1 49.055 9.83298 36.0667 
67 3 52.3013 1.18763 41.0904 
68 3 0.339022 0.945961 39.8419 
69 3 0.522533 2.41539 41.7706 
70 3 29.0323 7.04182 15.2587 
71 3 27.584 6.7783 14.7037 
72 3 29.7001 7.79616 14.0973 
73 3 3.16741 47.2918 44.0912 
74 3 2.6409 47.8626 8.05916 
75 3 4.57848 46.6941 44.4661 
76 1 14.1136 19.3824 33.5822 
77 2 49.8944 20.6622 43.5099 
78 1 6.70902 26.6054 36.6118 
79 2 14.6139 9.65063 21.5311 
80 2 15.3461 52.4843 34.1374 
81 1 35.8651 1.61491 11.4366 
82 3 49.9258 21.499 42.5952 
83 3 49.098 21.597 44.015 
84 3 50.6386 20.0606 42.6497 
85 3 13.5614 9.09076 20.9753 
86 3 13.7227 10.0828 22.3212 
87 3 15.1294 8.99519 20.5931 
88 3 14.941 52.2157 35.3484 
89 3 14.2242 0.675086 34.2378 
90 3 16.2112 51.6898 34.7683 
91 1 49.6264 45.9177 37.6642 
92 2 16.8394 26.3209 37.2075 
93 1 42.0218 50.1536 18.0126 
94 2 2.68618 37.7789 17.0417 
95 2 3.59878 12.9107 27.3998 
96 1 21.8568 24.6468 37.3236 
97 3 15.6602 26.864 37.1175 
98 3 17.135 27.3293 36.5887 
99 3 16.1489 25.518 37.8327 
100 3 3.94243 37.492 16.9023 
101 3 2.93347 37.9848 15.8045 
102 3 2.90301 37.3844 18.2175 
103 3 3.15573 13.7474 26.5736 
104 3 2.60466 13.4051 27.9403 
105 3 4.39967 12.7696 26.4252 
106 1 36.7351 7.24828 23.7598 
107 2 10.8211 27.131 28.7025 
108 1 22.046 1.41004 19.2439 
109 2 2.14379 31.2724 9.50692 
110 2 1.25354 45.6646 27.0031 
111 1 25.3562 42.5623 11.6148 
112 3 10.479 28.2426 28.8706 
113 3 9.76911 26.9189 29.3895 
114 3 11.6664 27.8184 28.068 
115 3 2.89336 30.8468 10.4553 
116 3 2.54922 30.1522 9.08611 
117 3 2.00954 32.2254 10.291 
118 3 1.4875 46.4532 27.9104 
119 3 0.942754 44.9034 27.9464 
120 3 1.58193 46.7928 26.4506 
121 1 44.9832 27.2061 25.1751 
122 2 21.7634 52.8972 11.122 
123 1 21.9761 10.9274 27.6446 
124 2 28.914 11.2718 9.45713 
125 2 19.9771 35.8288 36.443 
126 1 38.7581 7.86099 37.9035 
127 3 21.1575 0.839112 12.1293 
128 3 22.4206 52.2361 12.0765 
129 3 20.8334 1.11716 10.6661 
130 3 29.2612 10.0775 9.19061 
131 3 29.4196 10.9597 10.5157 
132 3 28.6178 11.0745 8.23938 
133 3 20.0134 34.5728 36.3294 
134 3 20.1711 35.8322 35.2042 
135 3 19.8531 35.2909 37.5588 
136 1 44.193 23.1223 42.5461 
137 2 34.3282 45.5621 42.3043 
138 1 23.0381 51.8213 38.6673 
139 2 14.2673 30.6331 39.907 
140 2 10.0472 39.3161 39.5368 
141 1 51.9748 29.7789 10.2955 
142 3 35.2147 46.1266 42.9296 
143 3 33.7022 46.577 42.566 
144 3 35.3423 44.9085 42.2124 
145 3 14.0474 31.7909 39.5809 
146 3 13.7277 30.5319 38.8108 
147 3 14.8031 31.3606 40.8615 
148 3 10.0789 38.077 39.6152 
149 3 9.06194 39.0263 40.3067 
150 3 11.0257 39.059 38.7591 
151 1 40.1111 14.8965 12.4393 
152 2 14.9457 45.0974 40.8893 
153 1 50.4469 31.1861 25.6178 
154 2 17.1571 52.6705 41.8351 
155 2 39.8255 5.60692 38.7773 
156 1 44.5989 16.1345 42.0321 
157 3 15.9506 45.7268 41.0853 
158 3 15.5845 44.3462 41.6531 
159 3 14.7667 46.1763 40.204 
160 3 17.5724 51.8707 42.6861 
161 3 16.7006 52.9605 42.9856 
162 3 17.8398 51.9163 41.0478 
163 3 38.6426 6.1193 38.6367 
164 3 40.0902 6.78557 39.1158 
165 3 39.1106 4.69951 38.3675 
166 1 11.512 49.7661 24.25 
167 2 25.4188 36.8513 42.0282 
168 1 23.8416 21.5131 37.3068 
169 2 24.5342 1.03598 11.1155 
170 2 23.6587 51.4315 18.2621 
171 1 21.8927 32.8411 12.4592 
172 3 25.6467 37.9733 42.5454 
173 3 26.5652 36.7086 42.4626 
174 3 24.3646 37.4951 41.7251 
175 3 24.793 2.20941 11.6977 
176 3 23.7894 1.82315 10.4792 
177 3 25.4151 0.728762 11.8967 
178 3 23.1051 52.0329 19.1602 
179 3 24.7254 51.9087 18.8171 
180 3 22.4641 51.1542 18.2224 
181 1 22.1826 50.8641 30.8927 
182 2 18.417 9.67352 20.2502 
183 1 46.3991 32.9561 9.82339 
184 2 52.3142 40.3371 16.446 
185 2 13.3159 20.6185 42.6478 
186 1 19.3237 28.4322 34.6436 
187 3 18.0419 9.04191 19.2467 
188 3 17.6077 10.5383 19.7469 
189 3 19.0552 8.61707 20.3973 
190 3 51.8342 41.444 15.9965 
191 3 52.2583 41.0674 17.4107 
192 3 52.225 40.1754 15.1655 
193 3 13.5247 19.5041 42.0317 
194 3 13.9656 21.0557 41.6681 
195 3 12.7236 19.8134 43.3676 
196 1 34.2545 50.7731 24.9993 
197 2 29.7147 53.0274 28.1758 
198 1 19.2305 10.0196 26.8014 
199 2 13.4627 47.6867 18.4256 
200 2 46.095 20.496 27.6495 
201 1 42.4138 26.9889 36.4293 
202 3 29.9224 52.6097 27.062 
203 3 28.5076 52.7892 27.8162 
204 3 30.9476 53.0817 27.9934 
205 3 14.6458 47.9766 17.9961 
206 3 13.5255 48.904 18.1633 
207 3 14.0681 46.5636 18.6168 
208 3 45.7908 20.9094 26.4819 
209 3 45.8435 21.7536 27.7869 
210 3 46.2573 19.4265 27.0348 
211 1 10.7041 29.4397 17.7982 
212 2 34.0203 28.9417 41.1896 
213 1 14.035 26.378 37.7771 
214 2 15.1096 32.9773 14.2286 
215 2 45.2084 38.1092 8.85846 
216 1 16.0638 29.9702 19.0375 
217 3 34.3147 30.1595 41.3603 
218 3 33.5108 29.5722 40.2256 
219 3 34.6567 28.7645 42.2173 
220 3 15.4963 31.949 14.8344 
221 3 14.6519 32.085 13.4312 
222 3 15.7074 33.435 15.2934 
223 3 46.4333 37.8562 8.87317 
224 3 45.6927 38.976 8.05363 
225 3 45.3365 37.0826 9.5158 
226 1 6.58408 42.6632 17.2661 
227 2 13.5654 51.6889 44.1687 
228 1 46.5962 29.1644 32.8188 
229 2 47.6968 23.1185 37.3796 
230 2 44.3478 21.2854 39.8961 
231 1 12.3889 31.7482 12.7331 
232 3 14.1473 51.9827 43.0432 
233 3 13.0357 50.8269 43.3834 
234 3 14.3724 52.6659 44.5667 
235 3 47.8211 23.4138 36.1716 
236 3 47.2872 24.256 37.3999 
237 3 48.1553 22.1043 36.7846 
238 3 44.4191 20.047 39.9959 
239 3 43.9428 21.1832 41.0307 
240 3 44.8416 20.937 38.8293 
241 1 38.702 21.7227 41.6268 
242 2 42.9947 36.4103 26.2078 
243 1 40.9006 52.1547 42.945 
244 2 36.0268 13.4165 18.0025 
245 2 11.3313 4.72184 24.3778 
246 1 35.4714 2.82036 8.34238 
247 3 43.4077 35.2666 26.441 
248 3 43.3526 36.3167 27.3763 
249 3 42.7422 35.9843 25.0897 
250 3 36.7401 13.5121 16.9953 
251 3 37.2361 13.6047 18.4935 
252 3 35.1895 13.207 17.1488 
253 3 12.4161 4.24177 23.8909 
254 3 12.2161 5.04617 25.2118 
255 3 10.9949 4.16282 23.2912 
256 1 39.7179 12.4927 24.6304 
257 2 48.9204 5.04506 27.8227 
258 1 10.665 36.6491 36.0788 
259 2 7.79025 52.2253 9.76648 
260 2 9.64264 31.5829 14.2609 
261 1 39.5967 26.07 27.0242 
262 3 48.2425 5.96611 27.1535 
263 3 47.9195 4.40912 27.4458 
264 3 49.7389 6.04797 27.9559 
265 3 7.26751 52.8792 10.7735 
266 3 8.80485 52.8064 10.2689 
267 3 6.63465 51.9108 9.60813 
268 3 10.0068 31.4062 13.0356 
269 3 10.7858 30.9928 14.422 
270 3 8.60471 32.0619 13.6765 
271 1 47.2305 42.9903 10.7386 
272 2 11.6422 29.242 9.16345 
273 1 18.9288 30.0538 32.066 
274 2 27.6319 3.16538 27.3795 
275 2 13.7914 4.84324 14.3275 
276 1 46.0604 20.3753 20.9095 
277 3 11.9211 28.792 8.02772 
278 3 10.7103 29.7687 8.4907 
279 3 12.6381 28.5299 9.39858 
280 3 28.0265 3.38302 26.2307 
281 3 26.7228 2.56276 26.7582 
282 3 28.6609 3.83435 27.5352 
283 3 14.8996 5.17439 13.8235 
284 3 13.6602 4.69306 13.0555 
285 3 14.3816 5.10221 15.4167 
286 1 14.3639 21.5661 27.3809 
287 2 27.1155 51.5238 18.3228 
288 1 36.6611 36.839 36.8195 
289 2 15.3876 6.23074 18.1214 
290 2 8.32855 39.6667 36.8295 
291 1 43.0583 11.7649 14.6358 
292 3 27.7681 51.59 17.2414 
293 3 27.2023 52.7483 18.1558 
294 3 27.2898 50.3584 18.0472 
295 3 15.6407 6.5398 19.3116 
296 3 14.5124 5.65403 18.8289 
297 3 16.3689 6.97278 18.0834 
298 3 8.68725 40.6847 37.631 
299 3 7.32145 39.7255 37.6405 
300 3 9.47371 39.9496 36.2835 
301 1 4.14119 35.3812 11.6943 
302 2 6.25769 49.9193 16.457 
303 1 9.77474 14.5656 33.1145 
304 2 36.6499 6.37859 20.9603 
305 2 15.0596 18.9398 21.5574 
306 1 11.2482 37.4287 19.0287 
307 3 7.35184 50.4151 16.7117 
308 3 6.04192 51.1691 16.4244 
309 3 7.06188 48.8984 16.3546 
310 3 37.2331 6.98938 21.8888 
311 3 35.6657 6.97176 21.4329 
312 3 37.9398 6.19063 20.8723 
313 3 15.228 18.6803 20.3556 
314 3 16.2449 18.3754 21.5341 
315 3 13.9626 19.3699 21.031 
316 1 40.4029 3.88534 32.1036 
317 2 19.0553 20.0025 12.2004 
318 1 52.2581 29.4041 43.7687 
319 2 49.6948 16.6011 32.8397 
320 2 15.4284 27.3045 19.8776 
321 1 12.6905 13.9496 26.8738 
322 3 19.2487 20.0016 10.9428 
323 3 20.1754 19.428 11.9725 
324 3 18.0253 20.5746 11.9082 
325 3 49.4038 16.3991 31.6421 
326 3 48.5185 16.9754 32.7812 
327 3 50.7785 16.177 32.3951 
328 3 15.0572 28.4681 20.1015 
329 3 14.5909 27.3248 20.8327 
330 3 16.1251 28.0256 19.0629 
331 1 28.6284 12.966 31.3239 
332 2 25.2547 52.5579 24.2057 
333 1 47.6775 37.4369 10.3773 
334 2 20.627 6.36758 30.7125 
335 2 14.594 29.7587 24.8034 
336 1 36.7873 44.3674 26.2003 
337 3 25.6597 1.17146 23.7745 
338 3 24.1984 52.775 23.531 
339 3 26.4179 52.7874 24.6863 
340 3 20.9572 6.13852 29.5402 
341 3 19.9809 5.31081 30.5195 
342 3 21.307 7.43275 30.4805 
343 3 15.8303 29.9845 25.1201 
344 3 15.1861 29.1949 23.9149 
345 3 14.493 30.5214 25.8528 
346 1 1.4707 46.2135 15.27 
347 2 10.7799 35.3693 33.0718 
348 1 40.6803 26.0019 17.6077 
349 2 3.29673 20.9573 17.5852 
350 2 23.7712 8.21934 13.3612 
351 1 8.4857 15.2359 12.6968 
352 3 11.781 34.7728 33.6286 
353 3 10.2997 34.2778 33.3143 
354 3 11.674 36.1913 33.0609 
355 3 2.26116 20.5677 18.0972 
356 3 3.11969 21.7653 18.5229 
357 3 3.05128 19.9757 16.8539 
358 3 23.0918 7.1784 13.5101 
359 3 24.6809 7.34851 13.401 
360 3 22.5477 8.61364 13.4069 
361 1 6.72541 5.36059 23.4017 
362 2 32.5566 4.59904 21.2955 
363 1 2.31649 26.0595 36.0329 
364 2 40.6518 7.00233 17.5438 
365 2 16.0853 22.6676 20.1857 
366 1 6.61571 2.57276 14.4306 
367 3 31.3266 4.52773 21.2672 
368 3 32.2484 3.51388 21.8702 
369 3 32.296 5.73548 20.7756 
370 3 40.467 7.21296 16.3206 
371 3 39.4897 6.38764 17.3704 
372 3 41.6448 7.75774 17.1717 
373 3 16.5129 22.662 21.3571 
374 3 15.6578 23.8075 20.5725 
375 3 16.6127 21.5785 20.2677 
376 1 31.7557 26.5227 19.8552 
377 2 32.6488 1.84609 8.29318 
378 1 27.9996 17.8712 18.848 
379 2 35.1269 15.3737 10.7366 
380 2 38.3696 14.0935 14.5001 
381 1 7.08836 31.2867 12.5129 
382 3 33.4481 2.75867 7.95332 
383 3 33.2197 1.3519 44.4724 
384 3 32.4302 2.80413 9.18614 
385 3 35.0082 15.8018 11.8909 
386 3 36.27 15.888 10.9398 
387 3 33.9784 14.9692 11.0948 
388 3 39.5779 14.2913 14.1802 
389 3 38.2245 14.4675 13.279 
390 3 38.9611 13.7816 15.6002 
391 1 18.7804 15.0409 26.0305 
392 2 22.1924 16.5387 17.8595 
393 1 51.7869 41.5585 28.726 
394 2 7.65908 37.9806 29.7314 
395 2 37.0944 48.9075 8.79952 
396 1 45.7424 35.4806 10.9891 
397 3 22.8728 15.54 18.101 
398 3 21.2893 15.7406 18.145 
399 3 23.3486 16.9572 17.6027 
400 3 6.99462 37.8151 28.5963 
401 3 7.48412 36.737 29.6232 
402 3 7.45151 39.1944 29.3358 
403 3 36.8804 49.5968 9.86772 
404 3 37.72 48.2562 9.69663 
405 3 36.3661 49.8869 8.43079 
406 1 27.0661 2.48618 31.9932 
407 2 8.8107 23.6662 27.5828 
408 1 24.799 3.64621 10.1934 
409 2 35.8041 23.711 41.1618 
410 2 16.2162 9.19364 28.8228 
411 1 12.0579 31.5691 32.0937 
412 3 8.34199 23.9701 26.4274 
413 3 9.77224 23.6783 26.7915 
414 3 7.58927 23.8273 27.9113 
415 3 35.5708 23.188 39.9716 
416 3 34.5651 23.9811 41.0867 
417 3 36.9645 23.3086 40.8095 
418 3 15.5159 9.6791 27.885 
419 3 15.3393 9.93045 29.4125 
420 3 16.8239 8.74888 27.8049 
421 1 1.55949 2.37491 43.6072 
422 2 0.369789 13.3229 30.811 
423 1 21.3479 21.306 14.4618 
424 2 26.9506 33.9027 12.9348 
425 2 9.189 20.0081 44.1208 
426 1 19.2021 14.6383 19.9191 
427 3 -0.00508837 12.3969 30.0345 
428 3 1.42634 13.0538 30.1682 
429 3 51.7959 13.2052 31.0953 
430 3 25.8562 34.5572 12.8364 
431 3 27.0137 34.6944 13.8939 
432 3 26.5158 33.4121 11.872 
433 3 9.4503 20.7858 7.84922 
434 3 10.2509 19.4751 44.5299 
435 3 8.2452 20.8626 44.0507 
436 1 2.96872 7.059 11.893 
437 2 0.810052 45.3352 33.6933 
438 1 10.4325 24.2526 35.5364 
439 2 29.1538 47.5833 21.969 
440 2 13.2614 22.2859 31.8272 
441 1 6.45803 40.1207 19.3799 
442 3 0.729203 45.1629 34.9362 
443 3 0.913176 46.5385 34.0578 
444 3 0.65351 44.0976 33.8832 
445 3 28.4792 48.5909 21.7155 
446 3 29.6403 48.3603 22.8613 
447 3 28.3966 47.1899 21.0458 
448 3 12.475 23.1389 31.2703 
449 3 13.44 22.0793 30.5525 
450 3 12.6857 22.8567 32.7986 
451 1 23.6024 2.64063 25.1201 
452 2 36.4664 36.6271 41.4099 
453 1 46.6355 46.5521 40.0959 
454 2 2.92527 10.1063 10.9375 
455 2 43.1223 2.87335 39.2756 
456 1 8.90541 29.5897 28.3445 
457 3 35.54 36.3125 42.2245 
458 3 37.1855 36.2927 42.3728 
459 3 35.374 36.8342 40.8409 
460 3 3.87131 11.0206 10.7998 
461 3 3.97534 9.3595 11.1544 
462 3 2.29796 11.183 10.7194 
463 3 43.9169 1.90084 39.354 
464 3 42.4269 1.9609 39.8506 
465 3 44.2153 3.26008 38.7302 
466 1 19.2515 11.16 37.0693 
467 2 18.0549 37.7397 10.1816 
468 1 25.4247 48.1718 13.4701 
469 2 41.1756 12.4766 32.2552 
470 2 32.0421 37.9561 21.0352 
471 1 51.0081 47.8281 30.5088 
472 3 18.5205 37.8436 9.00046 
473 3 18.6383 36.635 10.0779 
474 3 17.6428 38.8545 9.78562 
475 3 41.5229 13.3737 31.3771 
476 3 41.8131 11.883 31.2784 
477 3 40.592 13.4036 32.68 
478 3 31.8046 37.5247 22.2439 
479 3 32.6105 38.966 21.6334 
480 3 31.4656 36.8788 20.9076 
481 1 35.7427 47.8536 24.7289 
482 2 3.31979 24.7766 24.9373 
483 1 10.3202 39.5516 13.2375 
484 2 23.6195 19.6465 7.94933 
485 2 41.8795 3.65235 15.0302 
486 1 37.3441 11.3833 22.398 
487 3 3.34953 23.844 25.7506 
488 3 4.47677 24.8136 25.4231 
489 3 2.25061 24.2698 24.7639 
490 3 23.4651 20.4946 8.86858 
491 3 24.8693 19.9829 8.21132 
492 3 22.3821 19.6314 8.10044 
493 3 41.548 4.03386 16.2107 
494 3 40.6101 3.45876 14.9702 
495 3 42.9457 4.03517 15.4915 
496 1 7.57843 17.9953 13.8016 
497 2 23.9768 50.3583 15.4947 
498 1 9.52738 45.7863 13.6474 
499 2 17.3359 45.5271 9.11086 
500 2 3.93438 34.872 36.45 
501 1 50.9671 6.33237 36.7623 
502 3 25.1092 49.8685 15.1595 
503 3 23.999 50.5304 14.2371 
504 3 24.4551 49.8408 16.5191 
505 3 17.1701 45.542 10.391 
506 3 16.9199 44.3393 9.2026 
507 3 17.6967 46.7032 9.43878 
508 3 4.70799 34.731 37.4969 
509 3 4.98238 35.2764 35.9856 
510 3 3.07026 34.5252 37.3313 
511 1 48.6317 38.7625 28.8051 
512 2 14.6785 11.7491 24.9011 
513 1 32.6344 1.49986 36.8936 
514 2 25.2462 45.4217 12.6779 
515 2 19.4644 7.58052 41.4513 
516 1 21.0355 49.8318 41.2235 
517 3 15.6639 10.9538 25.0271 
518 3 15.2863 11.8177 23.7641 
519 3 14.5509 11.3075 26.0351 
520 3 26.0582 46.3507 12.7868 
521 3 24.6869 46.1834 13.5142 
522 3 26.1661 45.0715 11.8973 
523 3 19.928 8.60258 40.9696 
524 3 19.7546 7.16484 40.2931 
525 3 19.3154 8.35195 42.2989 
526 1 24.6208 44.4246 41.2302 
527 2 34.3072 42.9489 17.0987 
528 1 23.8504 38.8412 43.2228 
529 2 9.84663 19.0296 26.0999 
530 2 27.8557 6.15439 22.1707 
531 1 45.1602 27.4538 9.89036 
532 3 35.1728 42.5622 17.9217 
533 3 35.0586 42.23 16.3743 
534 3 33.953 43.4795 18.1836 
535 3 9.80123 19.6322 24.9663 
536 3 9.89832 20.3118 26.3936 
537 3 9.76981 18.0764 25.3149 
538 3 28.4671 6.16437 21.0744 
539 3 28.8309 6.90432 22.5051 
540 3 27.1609 5.48339 21.3944 
541 1 14.932 45.7663 16.9334 
542 2 15.2829 38.0733 23.5887 
543 1 48.6665 17.9553 9.09973 
544 2 49.1326 23.127 20.8405 
545 2 47.9817 30.5891 27.048 
546 1 29.023 46.5823 32.6776 
547 3 15.9459 38.5605 24.5847 
548 3 15.994 38.9728 23.0566 
549 3 14.7281 37.324 24.442 
550 3 49.3726 23.5051 22.0196 
551 3 50.2809 23.6327 20.706 
552 3 48.1344 22.7084 21.4506 
553 3 48.7759 31.4959 26.7127 
554 3 47.3153 31.628 27.3288 
555 3 49.0056 29.9568 26.7141 
556 1 46.5719 7.34238 33.3744 
557 2 14.5061 52.0249 18.0758 
558 1 8.67658 3.25585 31.6863 
559 2 41.3395 5.95752 11.9461 
560 2 9.1402 12.9606 42.0634 
561 1 21.9178 34.3098 39.8997 
562 3 15.3744 52.9299 17.8546 
563 3 15.0583 52.2016 19.1757 
564 3 14.3357 52.2579 16.8027 
565 3 41.4262 5.0774 12.8413 
566 3 41.906 6.40176 12.9112 
567 3 40.8099 5.04934 11.2569 
568 3 8.04968 13.5556 41.9354 
569 3 8.53863 12.6455 43.1064 
570 3 9.27069 13.4 40.9102 
571 1 15.8551 34.6692 30.0012 
572 2 45.3085 9.41022 41.0312 
573 1 12.3345 25.1282 32.3212 
574 2 19.4944 28.7317 26.358 
575 2 12.3972 45.6447 36.7839 
576 1 6.37713 47.3507 43.1425 
577 3 44.4818 10.118 41.7802 
578 3 44.3386 8.53515 41.2588 
579 3 45.7705 10.5553 41.0321 
580 3 19.3854 29.588 27.2959 
581 3 20.0635 28.0584 27.2592 
582 3 18.8868 29.7077 25.7972 
583 3 11.4778 46.1038 36.0463 
584 3 12.9035 45.5288 35.6314 
585 3 11.5214 46.0021 37.5637 
586 1 36.5597 30.6128 22.1593 
587 2 46.2438 30.0674 11.0259 
588 1 24.3442 18.1233 22.882 
589 2 5.14276 31.2608 39.9918 
590 2 44.2022 35.698 13.7601 
591 1 0.288658 6.10924 27.2911 
592 3 46.383 29.1752 10.1386 
593 3 45.9804 30.6421 9.90311 
594 3 46.5705 29.0151 11.6485 
595 3 5.26204 32.265 39.1028 
596 3 6.3642 31.315 39.9402 
597 3 3.96977 31.6899 39.7062 
598 3 43.3106 36.4602 13.3539 
599 3 43.6032 36.0814 14.8514 
600 3 44.326 35.6235 12.4752 
601 1 16.9658 19.69 19.5506 
602 2 7.09806 8.83773 36.8843 
603 1 25.0293 7.72395 24.75 
604 2 27.7925 39.6896 38.4932 
605 2 28.5378 21.3225 14.6931 
606 1 14.2124 7.19656 37.6598 
607 3 6.75396 8.13799 35.9061 
608 3 6.59894 7.86811 37.4006 
609 3 7.49755 9.63701 35.9654 
610 3 27.6672 40.2538 39.6231 
611 3 27.6183 40.9101 38.1332 
612 3 27.8747 38.7316 39.3509 
613 3 27.5147 20.5598 14.4885 
614 3 27.7299 21.9918 13.9059 
615 3 28.8822 20.3632 15.3826 
616 1 34.8474 36.5639 39.2289 
617 2 51.4374 44.3045 26.0097 
618 1 20.551 11.1514 23.8188 
619 2 3.3148 39.2074 30.9773 
620 2 10.5199 5.95449 42.086 
621 1 13.0335 3.56233 11.4436 
622 3 51.1708 44.5767 24.7725 
623 3 50.3155 43.8672 25.9967 
624 3 52.4604 44.9046 25.4956 
625 3 2.87096 38.1282 31.4593 
626 3 4.09495 38.3894 30.4085 
627 3 2.35866 39.4812 31.8092 
628 3 11.4013 6.9148 41.8843 
629 3 10.4248 6.67023 43.1521 
630 3 10.9719 5.57356 40.9274 
631 1 35.8871 42.6144 23.5483 
632 2 12.6767 43.8686 10.6132 
633 1 26.8777 36.1586 12.3541 
634 2 44.8562 22.6707 19.5626 
635 2 41.1855 46.3288 23.8006 
636 1 8.15143 7.22186 39.2487 
637 3 11.8818 44.21 9.71167 
638 3 12.0776 42.7797 10.3059 
639 3 12.9405 45.0805 10.4865 
640 3 45.1433 21.6223 19.0057 
641 3 44.8548 22.9993 18.3545 
642 3 45.1219 21.8448 20.4956 
643 3 41.49 47.5294 23.9738 
644 3 42.1421 46.5221 22.9324 
645 3 40.491 46.6344 24.7804 
646 1 3.32227 18.3924 25.4795 
647 2 47.5465 2.90523 15.2403 
648 1 8.38341 33.5746 32.79 
649 2 29.3918 19.2504 23.7265 
650 2 51.3873 15.9274 35.8666 
651 1 19.261 52.8582 28.3377 
652 3 46.8594 2.03849 14.6135 
653 3 46.701 2.61611 16.1576 
654 3 48.0863 2.84316 14.0976 
655 3 30.2878 19.2911 24.6548 
656 3 30.3293 18.5295 23.263 
657 3 28.8264 19.9922 24.5442 
658 3 50.5491 16.3723 35.0379 
659 3 50.4687 16.3872 36.5467 
660 3 51.9449 15.5814 34.837 
661 1 14.0081 3.20681 24.4948 
662 2 25.6029 47.114 16.0727 
663 1 42.9959 1.78346 22.3172 
664 2 45.8698 37.4131 16.4977 
665 2 18.9304 17.6892 18.0717 
666 1 41.7851 32.7671 30.6299 
667 3 26.417 47.0085 17.0257 
668 3 24.9359 46.5607 16.8833 
669 3 26.6189 47.6791 15.6854 
670 3 45.9507 37.9838 17.6661 
671 3 46.8976 36.8691 17.0314 
672 3 44.9296 38.1643 16.413 
673 3 17.8509 18.0039 18.6198 
674 3 18.3707 18.532 17.2841 
675 3 18.9496 16.9304 19.0813 
676 1 7.36168 46.0022 19.5878 
677 2 24.3861 48.1189 25.3627 
678 1 10.5178 47.4078 20.1547 
679 2 3.11423 9.79647 30.9934 
680 2 14.9716 7.10442 34.7056 
681 1 51.1647 49.019 23.6179 
682 3 23.9871 47.48 26.3712 
683 3 25.1395 48.4851 26.2258 
684 3 23.3734 47.4195 24.967 
685 3 2.7765 10.6774 30.0589 
686 3 3.27749 10.9226 31.5432 
687 3 2.81085 9.03676 30.002 
688 3 14.9055 6.75094 35.9238 
689 3 15.6943 6.12038 34.7831 
690 3 14.141 7.94559 35.1839 
691 1 34.9311 47.0746 30.7111 
692 2 46.6963 41.8371 36.5659 
693 1 9.36049 20.7935 18.7784 
694 2 9.56192 41.0317 15.3015 
695 2 14.9416 48.0757 28.1478 
696 1 34.6048 47.1551 34.0693 
697 3 47.4081 42.818 36.0605 
698 3 47.5335 42.0318 37.4665 
699 3 46.1811 42.0265 35.4789 
700 3 10.5396 40.3905 14.9104 
701 3 10.499 41.6772 15.8081 
702 3 9.06141 40.1947 14.5283 
703 3 13.7505 48.5203 28.2428 
704 3 14.4533 46.9959 28.689 
705 3 15.0342 49.2503 27.7438 
706 1 52.2661 50.9477 43.9349 
707 2 31.846 1.82728 18.1811 
708 1 47.7563 46.433 16.6281 
709 2 7.1943 48.1493 8.77475 
710 2 49.5938 35.7551 31.4311 
711 1 45.1364 20.2408 17.6198 
712 3 32.3242 0.758365 17.8792 
713 3 30.919 1.25235 17.4962 
714 3 32.9481 1.70504 18.8186 
715 3 7.05688 48.819 44.968 
716 3 7.17898 49.3245 9.24747 
717 3 7.14232 47.2249 7.8861 
718 3 50.0182 35.7066 32.5691 
719 3 50.2133 34.6417 31.4866 
720 3 49.3627 36.8553 31.8741 
721 1 41.2772 18.4138 24.5969 
722 2 8.36203 43.6464 8.94779 
723 1 12.8393 37.0279 24.2715 
724 2 45.5721 53.1327 20.9934 
725 2 28.9313 40.4992 22.0632 
726 1 10.4457 48.2478 41.3035 
727 3 8.56274 44.0095 10.204 
728 3 7.44833 44.4527 9.22929 
729 3 9.43425 42.9271 9.12001 
730 3 45.3539 1.54948 20.2773 
731 3 44.3378 53.1255 21.1464 
732 3 46.6679 0.998228 20.5481 
733 3 28.2286 39.3723 22.2502 
734 3 28.5581 40.7092 23.2921 
735 3 29.04 39.9209 20.9478 
736 1 5.86501 50.5669 7.94799 
737 2 19.8292 17.3247 35.94 
738 1 16.0804 34.8111 16.6484 
739 2 40.2653 29.3532 37.1022 
740 2 21.1863 8.3236 17.9934 
741 1 48.7224 45.2035 25.1904 
742 3 20.0677 17.0095 34.6674 
743 3 20.4417 18.3094 35.4727 
744 3 19.2482 16.1761 35.861 
745 3 40.2991 28.2811 37.7797 
746 3 39.2127 29.3763 37.7335 
747 3 41.4239 28.8848 36.757 
748 3 20.6188 9.40406 17.4762 
749 3 21.2013 9.25029 18.8778 
750 3 21.0105 7.93147 16.7936 
751 1 23.3453 30.4232 20.5838 
752 2 25.849 10.3733 11.7696 
753 1 37.6817 27.0936 21.8914 
754 2 2.6225 23.7633 37.9237 
755 2 42.3826 38.28 44.2887 
756 1 43.6671 11.7869 31.1381 
757 3 25.1557 11.1187 10.9934 
758 3 25.0218 9.56475 11.1003 
759 3 26.4152 11.4353 12.0275 
760 3 2.88353 23.0565 36.9047 
761 3 2.07129 24.3355 36.9646 
762 3 3.31862 22.8166 38.4779 
763 3 43.243 39.1993 44.4017 
764 3 43.3781 37.6724 43.7691 
765 3 41.7602 39.2277 44.8158 
766 1 29.5548 7.22567 38.6263 
767 2 46.0821 1.22821 35.3691 
768 1 19.1803 32.1533 8.9458 
769 2 43.8223 13.81 39.3137 
770 2 36.8202 28.1024 40.671 
771 1 50.1104 29.1791 34.2452 
772 3 45.1668 1.81307 36.0592 
773 3 46.6577 1.4144 36.4677 
774 3 45.0928 1.28262 34.5706 
775 3 44.9961 13.3222 39.5039 
776 3 44.3815 14.1249 38.1998 
777 3 43.7618 13.3511 40.5078 
778 3 37.9853 28.6398 40.3439 
779 3 37.5441 27.8932 41.6861 
780 3 36.7315 28.7132 39.5938 
781 1 40.5713 37.6235 40.8276 
782 2 29.6194 45.4527 18.9906 
783 1 51.113 37.611 11.7007 
784 2 42.6565 25.3834 19.5992 
785 2 50.284 52.1015 10.6802 
786 1 12.6766 12.0006 22.1726 
787 3 30.7577 45.8833 18.8711 
788 3 29.5136 46.6917 18.6645 
789 3 30.386 44.4528 19.0064 
790 3 41.4502 24.9739 19.594 
791 3 42.5499 24.9592 18.4369 
792 3 42.3275 25.5367 20.8701 
793 3 50.3935 52.6371 9.48031 
794 3 50.3022 51.064 9.8711 
795 3 50.3312 0.833422 10.9714 
796 1 9.43053 8.6064 43.594 
797 2 23.8291 31.3593 10.5994 
798 1 50.2706 49.2381 37.724 
799 2 29.8591 27.1007 42.6287 
800 2 18.6474 46.4437 43.8562 
801 1 38.5026 17.5876 26.5376 
802 3 24.3886 31.9906 9.68808 
803 3 24.8125 30.6317 10.2102 
804 3 23.1675 32.411 10.614 
805 3 28.9735 27.5972 41.8412 
806 3 28.8029 26.5534 43.1188 
807 3 30.5121 27.7935 41.7813 
808 3 17.6682 45.62 43.7832 
809 3 17.7347 47.1123 44.2234 
810 3 19.1358 45.3294 43.477 
811 1 25.9881 49.4687 21.9859 
812 2 15.4794 22.2134 39.8877 
813 1 41.7383 9.84098 12.7489 
814 2 48.0104 30.6923 15.0753 
815 2 42.6443 50.9851 23.5253 
816 1 44.2283 45.6281 41.9583 
817 3 16.5972 22.4241 39.2527 
818 3 15.6141 23.5207 40.165 
819 3 15.8388 21.1488 39.2992 
820 3 46.7858 30.4211 15.1444 
821 3 47.9129 30.2864 16.2605 
822 3 47.5398 30.9795 13.956 
823 3 43.4336 50.2785 22.9201 
824 3 43.5093 50.8933 24.3824 
825 3 42.0775 50.8464 22.4321 
826 1 22.3892 6.6501 12.0499 
827 2 49.0212 1.69064 22.4921 
828 1 41.6983 48.7279 22.3112 
829 2 31.802 5.46212 18.4109 
830 2 29.5119 38.1256 44.478 
831 1 3.36253 8.20965 15.4421 
832 3 49.8949 2.5273 22.953 
833 3 49.1095 2.66655 21.7453 
834 3 49.283 0.946362 23.4841 
835 3 31.5492 5.75644 17.2611 
836 3 31.6053 6.68917 18.41 
837 3 31.816 4.32013 17.9023 
838 3 28.5354 37.2582 44.5744 
839 3 29.7544 37.2922 43.5706 
840 3 28.7889 38.7031 8.2001 
841 1 39.8017 20.3241 39.0143 
842 2 9.6139 33.7851 7.8668 
843 1 6.03314 22.3256 23.2219 
844 2 28.3664 33.26 9.14149 
845 2 43.412 1.89737 12.2197 
846 1 33.6618 25.7132 8.57465 
847 3 9.50298 32.7847 44.285 
848 3 10.7924 33.5345 44.7394 
849 3 8.39401 33.6717 7.90559 
850 3 28.3811 32.1452 8.62038 
851 3 27.1885 33.1656 8.64886 
852 3 29.5069 32.862 9.48745 
853 3 43.0301 3.1178 12.0665 
854 3 42.7021 1.804 11.1073 
855 3 43.9413 2.43048 13.2578 
856 1 3.93344 15.3042 44.9799 
857 2 25.0499 42.5692 8.78042 
858 1 43.9569 8.54976 36.7061 
859 2 35.0955 23.8202 18.6215 
860 2 -0.0931272 47.6368 38.4345 
861 1 47.9888 32.6564 44.0724 
862 3 25.369 43.3679 9.64213 
863 3 26.2562 42.6746 8.43008 
864 3 24.04 42.8224 9.47211 
865 3 35.0995 23.7094 17.3513 
866 3 35.6199 24.911 18.3322 
867 3 34.6133 22.6922 18.4172 
868 3 0.13724 47.5208 37.1948 
869 3 1.17394 47.7009 38.3547 
870 3 51.3805 47.4775 37.9271 
871 1 12.3166 41.3343 32.335 
872 2 4.31774 26.86 9.52035 
873 1 26.15 5.56558 30.8985 
874 2 24.6013 10.1001 22.9467 
875 2 17.2797 37.3177 16.2264 
876 1 6.77697 7.3051 8.684 
877 3 3.50257 27.2502 8.6391 
878 3 5.00327 27.8267 9.15266 
879 3 3.28312 26.194 9.60543 
880 3 24.4274 10.0884 24.2622 
881 3 24.3481 8.90086 23.1861 
882 3 24.7502 11.3355 23.2131 
883 3 16.4719 36.503 15.7886 
884 3 17.1073 36.6717 17.2903 
885 3 17.1579 37.6915 15.0449 
886 1 4.6416 4.65108 10.4926 
887 2 9.77616 14.6084 44.1406 
888 1 43.5771 52.7447 40.1858 
889 2 32.9451 50.9148 43.9357 
890 2 18.8707 52.4348 19.3903 
891 1 26.0648 1.28635 42.7806 
892 3 9.87278 13.5141 44.7864 
893 3 10.7588 14.0181 43.5075 
894 3 8.88103 14.6949 7.83567 
895 3 33.7951 51.034 43.0503 
896 3 32.3592 50.3841 42.9525 
897 3 33.8446 51.4866 44.5706 
898 3 19.0423 52.1865 18.1532 
899 3 17.8828 52.9711 18.8235 
900 3 19.9973 51.8556 19.3375 
901 1 17.711 36.7915 27.3486 
902 2 37.2225 28.1358 24.4036 
903 1 45.6279 7.61979 12.1653 
904 2 46.0296 14.9752 35.4289 
905 2 45.8176 46.5633 14.2587 
906 1 2.27978 13.128 33.9282 
907 3 36.7918 27.1541 23.6891 
908 3 38.1175 27.9986 23.5042 
909 3 36.1859 27.7784 24.9522 
910 3 47.1742 14.5305 35.0614 
911 3 45.7937 13.7711 35.2524 
912 3 46.7978 15.9912 35.4556 
913 3 45.1134 47.5842 14.4363 
914 3 46.2187 47.0568 15.3499 
915 3 45.1449 46.7122 13.1308 
916 1 24.2673 5.63547 14.5675 
917 2 46.3296 3.22009 44.4105 
918 1 0.573934 26.7198 38.5738 
919 2 32.7028 19.0853 24.4676 
920 2 13.0565 51.1291 32.7942 
921 1 23.8038 11.7836 42.092 
922 3 45.9139 2.02058 43.9987 
923 3 45.2799 3.06945 7.88677 
924 3 47.1926 2.91198 43.5536 
925 3 33.2241 17.9789 24.8021 
926 3 32.6743 19.0528 25.7539 
927 3 33.1372 18.5723 23.3453 
928 3 12.9623 50.3413 31.7845 
929 3 11.8472 50.8945 32.4834 
930 3 14.2924 51.048 32.4955 
931 1 46.856 27.747 22.4244 
932 2 43.1612 28.4472 19.959 
933 1 34.9284 16.7435 24.9907 
934 2 5.07056 26.0499 34.4496 
935 2 49.0922 13.411 31.1537 
936 1 45.517 34.9491 38.2108 
937 3 43.7346 29.1099 19.0963 
938 3 42.9213 29.6911 20.2677 
939 3 43.6393 27.4801 19.3236 
940 3 5.70007 27.0645 34.7611 
941 3 4.40989 26.3685 35.4937 
942 3 6.00738 26.2446 33.549 
943 3 49.4401 12.4825 30.2765 
944 3 49.3362 13.9773 30.0733 
945 3 48.8712 12.3965 31.8443 
946 1 20.2379 22.9045 10.8135 
947 2 18.1243 22.6386 13.795 
948 1 8.56265 48.7829 11.6968 
949 2 13.9184 40.2683 22.0049 
950 2 38.9519 25.8041 43.7781 
951 1 50.8502 26.5187 16.388 
952 3 18.3676 23.552 14.6785 
953 3 19.3144 22.4108 14.1899 
954 3 17.0551 23.3075 13.9145 
955 3 13.9951 41.2152 21.2086 
956 3 14.112 39.7535 20.868 
957 3 13.6938 41.2066 22.8086 
958 3 38.1199 26.7039 43.7953 
959 3 38.0034 25.3384 44.4355 
960 3 39.5252 26.6554 43.0815 
961 1 10.6468 22.3924 21.3812 
962 2 52.1153 1.24628 15.1303 
963 1 6.97958 39.5448 40.9016 
964 2 43.8042 8.59363 32.1854 
965 2 5.11911 28.8054 17.2637 
966 1 12.9869 16.4167 29.2936 
967 3 51.4909 2.35687 14.7618 
968 3 51.4931 0.841298 14.0687 
969 3 52.4094 2.02868 16.0807 
970 3 42.9809 7.63328 32.1165 
971 3 44.5159 7.63021 32.3645 
972 3 42.7456 9.1881 31.9678 
973 3 5.77469 29.3077 18.2329 